V -t * -v 1.0a5 -a 0
A -t * -n 1 -p 0 -o 0x7fffffff -c 30 -a 1
A -t * -h 1 -m 1073741823 -s 0
c -t * -i 1 -n red
c -t * -i 2 -n yellow
c -t * -i 3 -n blue
n -t * -a 4 -s 4 -S UP -v circle -c black -i black
n -t * -a 0 -s 0 -S UP -v circle -c black -i black
n -t * -a 1 -s 1 -S UP -v circle -c black -i black
n -t * -a 2 -s 2 -S UP -v circle -c black -i black
n -t * -a 3 -s 3 -S UP -v circle -c black -i black
l -t * -s 0 -d 1 -S UP -r 700000 -D 0.80000000000000004 -c black -o right
l -t * -s 2 -d 0 -S UP -r 10000000 -D 0.001 -c black -o right-down
l -t * -s 3 -d 0 -S UP -r 10000000 -D 0.001 -c black -o right
l -t * -s 4 -d 0 -S UP -r 10000000 -D 0.001 -c black -o right-up
+ -t 0.004717176 -s 2 -d 0 -p tcp -e 40 -c 1 -i 0 -a 1 -x {2.0 1.0 0 ------- null}
- -t 0.004717176 -s 2 -d 0 -p tcp -e 40 -c 1 -i 0 -a 1 -x {2.0 1.0 0 ------- null}
h -t 0.004717176 -s 2 -d 0 -p tcp -e 40 -c 1 -i 0 -a 1 -x {2.0 1.0 -1 ------- null}
r -t 0.005749176 -s 2 -d 0 -p tcp -e 40 -c 1 -i 0 -a 1 -x {2.0 1.0 0 ------- null}
+ -t 0.005749176 -s 0 -d 1 -p tcp -e 40 -c 1 -i 0 -a 1 -x {2.0 1.0 0 ------- null}
- -t 0.005749176 -s 0 -d 1 -p tcp -e 40 -c 1 -i 0 -a 1 -x {2.0 1.0 0 ------- null}
h -t 0.005749176 -s 0 -d 1 -p tcp -e 40 -c 1 -i 0 -a 1 -x {2.0 1.0 -1 ------- null}
+ -t 0.1988283 -s 4 -d 0 -p tcp -e 40 -c 3 -i 1 -a 3 -x {4.0 1.2 0 ------- null}
- -t 0.1988283 -s 4 -d 0 -p tcp -e 40 -c 3 -i 1 -a 3 -x {4.0 1.2 0 ------- null}
h -t 0.1988283 -s 4 -d 0 -p tcp -e 40 -c 3 -i 1 -a 3 -x {4.0 1.2 -1 ------- null}
r -t 0.1998603 -s 4 -d 0 -p tcp -e 40 -c 3 -i 1 -a 3 -x {4.0 1.2 0 ------- null}
+ -t 0.1998603 -s 0 -d 1 -p tcp -e 40 -c 3 -i 1 -a 3 -x {4.0 1.2 0 ------- null}
- -t 0.1998603 -s 0 -d 1 -p tcp -e 40 -c 3 -i 1 -a 3 -x {4.0 1.2 0 ------- null}
h -t 0.1998603 -s 0 -d 1 -p tcp -e 40 -c 3 -i 1 -a 3 -x {4.0 1.2 -1 ------- null}
+ -t 0.78233 -s 3 -d 0 -p tcp -e 40 -c 2 -i 2 -a 2 -x {3.0 1.1 0 ------- null}
- -t 0.78233 -s 3 -d 0 -p tcp -e 40 -c 2 -i 2 -a 2 -x {3.0 1.1 0 ------- null}
h -t 0.78233 -s 3 -d 0 -p tcp -e 40 -c 2 -i 2 -a 2 -x {3.0 1.1 -1 ------- null}
r -t 0.783362 -s 3 -d 0 -p tcp -e 40 -c 2 -i 2 -a 2 -x {3.0 1.1 0 ------- null}
+ -t 0.783362 -s 0 -d 1 -p tcp -e 40 -c 2 -i 2 -a 2 -x {3.0 1.1 0 ------- null}
- -t 0.783362 -s 0 -d 1 -p tcp -e 40 -c 2 -i 2 -a 2 -x {3.0 1.1 0 ------- null}
h -t 0.783362 -s 0 -d 1 -p tcp -e 40 -c 2 -i 2 -a 2 -x {3.0 1.1 -1 ------- null}
r -t 0.806206318857143 -s 0 -d 1 -p tcp -e 40 -c 1 -i 0 -a 1 -x {2.0 1.0 0 ------- null}
+ -t 0.806206318857143 -s 1 -d 0 -p ack -e 40 -c 1 -i 3 -a 1 -x {1.0 2.0 0 ------- null}
- -t 0.806206318857143 -s 1 -d 0 -p ack -e 40 -c 1 -i 3 -a 1 -x {1.0 2.0 0 ------- null}
h -t 0.806206318857143 -s 1 -d 0 -p ack -e 40 -c 1 -i 3 -a 1 -x {1.0 2.0 -1 ------- null}
r -t 1.00031744285714 -s 0 -d 1 -p tcp -e 40 -c 3 -i 1 -a 3 -x {4.0 1.2 0 ------- null}
+ -t 1.00031744285714 -s 1 -d 0 -p ack -e 40 -c 3 -i 4 -a 3 -x {1.2 4.0 0 ------- null}
- -t 1.00031744285714 -s 1 -d 0 -p ack -e 40 -c 3 -i 4 -a 3 -x {1.2 4.0 0 ------- null}
h -t 1.00031744285714 -s 1 -d 0 -p ack -e 40 -c 3 -i 4 -a 3 -x {1.2 4.0 -1 ------- null}
r -t 1.58381914285714 -s 0 -d 1 -p tcp -e 40 -c 2 -i 2 -a 2 -x {3.0 1.1 0 ------- null}
+ -t 1.58381914285714 -s 1 -d 0 -p ack -e 40 -c 2 -i 5 -a 2 -x {1.1 3.0 0 ------- null}
- -t 1.58381914285714 -s 1 -d 0 -p ack -e 40 -c 2 -i 5 -a 2 -x {1.1 3.0 0 ------- null}
h -t 1.58381914285714 -s 1 -d 0 -p ack -e 40 -c 2 -i 5 -a 2 -x {1.1 3.0 -1 ------- null}
r -t 1.60666346171429 -s 1 -d 0 -p ack -e 40 -c 1 -i 3 -a 1 -x {1.0 2.0 0 ------- null}
+ -t 1.60666346171429 -s 0 -d 2 -p ack -e 40 -c 1 -i 3 -a 1 -x {1.0 2.0 0 ------- null}
- -t 1.60666346171429 -s 0 -d 2 -p ack -e 40 -c 1 -i 3 -a 1 -x {1.0 2.0 0 ------- null}
h -t 1.60666346171429 -s 0 -d 2 -p ack -e 40 -c 1 -i 3 -a 1 -x {1.0 2.0 -1 ------- null}
r -t 1.60769546171429 -s 0 -d 2 -p ack -e 40 -c 1 -i 3 -a 1 -x {1.0 2.0 0 ------- null}
+ -t 1.60769546171429 -s 2 -d 0 -p tcp -e 592 -c 1 -i 6 -a 1 -x {2.0 1.0 1 ------- null}
- -t 1.60769546171429 -s 2 -d 0 -p tcp -e 592 -c 1 -i 6 -a 1 -x {2.0 1.0 1 ------- null}
h -t 1.60769546171429 -s 2 -d 0 -p tcp -e 592 -c 1 -i 6 -a 1 -x {2.0 1.0 -1 ------- null}
+ -t 1.60769546171429 -s 2 -d 0 -p tcp -e 592 -c 1 -i 7 -a 1 -x {2.0 1.0 2 ------- null}
- -t 1.60816906171429 -s 2 -d 0 -p tcp -e 592 -c 1 -i 7 -a 1 -x {2.0 1.0 2 ------- null}
h -t 1.60816906171429 -s 2 -d 0 -p tcp -e 592 -c 1 -i 7 -a 1 -x {2.0 1.0 -1 ------- null}
r -t 1.60916906171429 -s 2 -d 0 -p tcp -e 592 -c 1 -i 6 -a 1 -x {2.0 1.0 1 ------- null}
+ -t 1.60916906171429 -s 0 -d 1 -p tcp -e 592 -c 1 -i 6 -a 1 -x {2.0 1.0 1 ------- null}
- -t 1.60916906171429 -s 0 -d 1 -p tcp -e 592 -c 1 -i 6 -a 1 -x {2.0 1.0 1 ------- null}
h -t 1.60916906171429 -s 0 -d 1 -p tcp -e 592 -c 1 -i 6 -a 1 -x {2.0 1.0 -1 ------- null}
r -t 1.60964266171429 -s 2 -d 0 -p tcp -e 592 -c 1 -i 7 -a 1 -x {2.0 1.0 2 ------- null}
+ -t 1.60964266171429 -s 0 -d 1 -p tcp -e 592 -c 1 -i 7 -a 1 -x {2.0 1.0 2 ------- null}
- -t 1.615934776 -s 0 -d 1 -p tcp -e 592 -c 1 -i 7 -a 1 -x {2.0 1.0 2 ------- null}
h -t 1.615934776 -s 0 -d 1 -p tcp -e 592 -c 1 -i 7 -a 1 -x {2.0 1.0 -1 ------- null}
r -t 1.80077458571429 -s 1 -d 0 -p ack -e 40 -c 3 -i 4 -a 3 -x {1.2 4.0 0 ------- null}
+ -t 1.80077458571429 -s 0 -d 4 -p ack -e 40 -c 3 -i 4 -a 3 -x {1.2 4.0 0 ------- null}
- -t 1.80077458571429 -s 0 -d 4 -p ack -e 40 -c 3 -i 4 -a 3 -x {1.2 4.0 0 ------- null}
h -t 1.80077458571429 -s 0 -d 4 -p ack -e 40 -c 3 -i 4 -a 3 -x {1.2 4.0 -1 ------- null}
r -t 1.80180658571429 -s 0 -d 4 -p ack -e 40 -c 3 -i 4 -a 3 -x {1.2 4.0 0 ------- null}
+ -t 1.80180658571429 -s 4 -d 0 -p tcp -e 592 -c 3 -i 8 -a 3 -x {4.0 1.2 1 ------- null}
- -t 1.80180658571429 -s 4 -d 0 -p tcp -e 592 -c 3 -i 8 -a 3 -x {4.0 1.2 1 ------- null}
h -t 1.80180658571429 -s 4 -d 0 -p tcp -e 592 -c 3 -i 8 -a 3 -x {4.0 1.2 -1 ------- null}
+ -t 1.80180658571429 -s 4 -d 0 -p tcp -e 592 -c 3 -i 9 -a 3 -x {4.0 1.2 2 ------- null}
- -t 1.80228018571429 -s 4 -d 0 -p tcp -e 592 -c 3 -i 9 -a 3 -x {4.0 1.2 2 ------- null}
h -t 1.80228018571429 -s 4 -d 0 -p tcp -e 592 -c 3 -i 9 -a 3 -x {4.0 1.2 -1 ------- null}
r -t 1.80328018571429 -s 4 -d 0 -p tcp -e 592 -c 3 -i 8 -a 3 -x {4.0 1.2 1 ------- null}
+ -t 1.80328018571429 -s 0 -d 1 -p tcp -e 592 -c 3 -i 8 -a 3 -x {4.0 1.2 1 ------- null}
- -t 1.80328018571429 -s 0 -d 1 -p tcp -e 592 -c 3 -i 8 -a 3 -x {4.0 1.2 1 ------- null}
h -t 1.80328018571429 -s 0 -d 1 -p tcp -e 592 -c 3 -i 8 -a 3 -x {4.0 1.2 -1 ------- null}
r -t 1.80375378571429 -s 4 -d 0 -p tcp -e 592 -c 3 -i 9 -a 3 -x {4.0 1.2 2 ------- null}
+ -t 1.80375378571429 -s 0 -d 1 -p tcp -e 592 -c 3 -i 9 -a 3 -x {4.0 1.2 2 ------- null}
- -t 1.8100459 -s 0 -d 1 -p tcp -e 592 -c 3 -i 9 -a 3 -x {4.0 1.2 2 ------- null}
h -t 1.8100459 -s 0 -d 1 -p tcp -e 592 -c 3 -i 9 -a 3 -x {4.0 1.2 -1 ------- null}
r -t 2.38427628571429 -s 1 -d 0 -p ack -e 40 -c 2 -i 5 -a 2 -x {1.1 3.0 0 ------- null}
+ -t 2.38427628571429 -s 0 -d 3 -p ack -e 40 -c 2 -i 5 -a 2 -x {1.1 3.0 0 ------- null}
- -t 2.38427628571429 -s 0 -d 3 -p ack -e 40 -c 2 -i 5 -a 2 -x {1.1 3.0 0 ------- null}
h -t 2.38427628571429 -s 0 -d 3 -p ack -e 40 -c 2 -i 5 -a 2 -x {1.1 3.0 -1 ------- null}
r -t 2.38530828571429 -s 0 -d 3 -p ack -e 40 -c 2 -i 5 -a 2 -x {1.1 3.0 0 ------- null}
+ -t 2.38530828571429 -s 3 -d 0 -p tcp -e 592 -c 2 -i 10 -a 2 -x {3.0 1.1 1 ------- null}
- -t 2.38530828571429 -s 3 -d 0 -p tcp -e 592 -c 2 -i 10 -a 2 -x {3.0 1.1 1 ------- null}
h -t 2.38530828571429 -s 3 -d 0 -p tcp -e 592 -c 2 -i 10 -a 2 -x {3.0 1.1 -1 ------- null}
+ -t 2.38530828571429 -s 3 -d 0 -p tcp -e 592 -c 2 -i 11 -a 2 -x {3.0 1.1 2 ------- null}
- -t 2.38578188571429 -s 3 -d 0 -p tcp -e 592 -c 2 -i 11 -a 2 -x {3.0 1.1 2 ------- null}
h -t 2.38578188571429 -s 3 -d 0 -p tcp -e 592 -c 2 -i 11 -a 2 -x {3.0 1.1 -1 ------- null}
r -t 2.38678188571429 -s 3 -d 0 -p tcp -e 592 -c 2 -i 10 -a 2 -x {3.0 1.1 1 ------- null}
+ -t 2.38678188571429 -s 0 -d 1 -p tcp -e 592 -c 2 -i 10 -a 2 -x {3.0 1.1 1 ------- null}
- -t 2.38678188571429 -s 0 -d 1 -p tcp -e 592 -c 2 -i 10 -a 2 -x {3.0 1.1 1 ------- null}
h -t 2.38678188571429 -s 0 -d 1 -p tcp -e 592 -c 2 -i 10 -a 2 -x {3.0 1.1 -1 ------- null}
r -t 2.38725548571429 -s 3 -d 0 -p tcp -e 592 -c 2 -i 11 -a 2 -x {3.0 1.1 2 ------- null}
+ -t 2.38725548571429 -s 0 -d 1 -p tcp -e 592 -c 2 -i 11 -a 2 -x {3.0 1.1 2 ------- null}
- -t 2.3935476 -s 0 -d 1 -p tcp -e 592 -c 2 -i 11 -a 2 -x {3.0 1.1 2 ------- null}
h -t 2.3935476 -s 0 -d 1 -p tcp -e 592 -c 2 -i 11 -a 2 -x {3.0 1.1 -1 ------- null}
r -t 2.415934776 -s 0 -d 1 -p tcp -e 592 -c 1 -i 6 -a 1 -x {2.0 1.0 1 ------- null}
+ -t 2.415934776 -s 1 -d 0 -p ack -e 40 -c 1 -i 12 -a 1 -x {1.0 2.0 1 ------- null}
- -t 2.415934776 -s 1 -d 0 -p ack -e 40 -c 1 -i 12 -a 1 -x {1.0 2.0 1 ------- null}
h -t 2.415934776 -s 1 -d 0 -p ack -e 40 -c 1 -i 12 -a 1 -x {1.0 2.0 -1 ------- null}
r -t 2.42270049028571 -s 0 -d 1 -p tcp -e 592 -c 1 -i 7 -a 1 -x {2.0 1.0 2 ------- null}
+ -t 2.42270049028571 -s 1 -d 0 -p ack -e 40 -c 1 -i 13 -a 1 -x {1.0 2.0 2 ------- null}
- -t 2.42270049028571 -s 1 -d 0 -p ack -e 40 -c 1 -i 13 -a 1 -x {1.0 2.0 2 ------- null}
h -t 2.42270049028571 -s 1 -d 0 -p ack -e 40 -c 1 -i 13 -a 1 -x {1.0 2.0 -1 ------- null}
r -t 2.6100459 -s 0 -d 1 -p tcp -e 592 -c 3 -i 8 -a 3 -x {4.0 1.2 1 ------- null}
+ -t 2.6100459 -s 1 -d 0 -p ack -e 40 -c 3 -i 14 -a 3 -x {1.2 4.0 1 ------- null}
- -t 2.6100459 -s 1 -d 0 -p ack -e 40 -c 3 -i 14 -a 3 -x {1.2 4.0 1 ------- null}
h -t 2.6100459 -s 1 -d 0 -p ack -e 40 -c 3 -i 14 -a 3 -x {1.2 4.0 -1 ------- null}
r -t 2.61681161428571 -s 0 -d 1 -p tcp -e 592 -c 3 -i 9 -a 3 -x {4.0 1.2 2 ------- null}
+ -t 2.61681161428571 -s 1 -d 0 -p ack -e 40 -c 3 -i 15 -a 3 -x {1.2 4.0 2 ------- null}
- -t 2.61681161428571 -s 1 -d 0 -p ack -e 40 -c 3 -i 15 -a 3 -x {1.2 4.0 2 ------- null}
h -t 2.61681161428571 -s 1 -d 0 -p ack -e 40 -c 3 -i 15 -a 3 -x {1.2 4.0 -1 ------- null}
r -t 3.1935476 -s 0 -d 1 -p tcp -e 592 -c 2 -i 10 -a 2 -x {3.0 1.1 1 ------- null}
+ -t 3.1935476 -s 1 -d 0 -p ack -e 40 -c 2 -i 16 -a 2 -x {1.1 3.0 1 ------- null}
- -t 3.1935476 -s 1 -d 0 -p ack -e 40 -c 2 -i 16 -a 2 -x {1.1 3.0 1 ------- null}
h -t 3.1935476 -s 1 -d 0 -p ack -e 40 -c 2 -i 16 -a 2 -x {1.1 3.0 -1 ------- null}
r -t 3.20031331428571 -s 0 -d 1 -p tcp -e 592 -c 2 -i 11 -a 2 -x {3.0 1.1 2 ------- null}
+ -t 3.20031331428571 -s 1 -d 0 -p ack -e 40 -c 2 -i 17 -a 2 -x {1.1 3.0 2 ------- null}
- -t 3.20031331428571 -s 1 -d 0 -p ack -e 40 -c 2 -i 17 -a 2 -x {1.1 3.0 2 ------- null}
h -t 3.20031331428571 -s 1 -d 0 -p ack -e 40 -c 2 -i 17 -a 2 -x {1.1 3.0 -1 ------- null}
r -t 3.21639191885714 -s 1 -d 0 -p ack -e 40 -c 1 -i 12 -a 1 -x {1.0 2.0 1 ------- null}
+ -t 3.21639191885714 -s 0 -d 2 -p ack -e 40 -c 1 -i 12 -a 1 -x {1.0 2.0 1 ------- null}
- -t 3.21639191885714 -s 0 -d 2 -p ack -e 40 -c 1 -i 12 -a 1 -x {1.0 2.0 1 ------- null}
h -t 3.21639191885714 -s 0 -d 2 -p ack -e 40 -c 1 -i 12 -a 1 -x {1.0 2.0 -1 ------- null}
r -t 3.21742391885714 -s 0 -d 2 -p ack -e 40 -c 1 -i 12 -a 1 -x {1.0 2.0 1 ------- null}
+ -t 3.21742391885714 -s 2 -d 0 -p tcp -e 592 -c 1 -i 18 -a 1 -x {2.0 1.0 3 ------- null}
- -t 3.21742391885714 -s 2 -d 0 -p tcp -e 592 -c 1 -i 18 -a 1 -x {2.0 1.0 3 ------- null}
h -t 3.21742391885714 -s 2 -d 0 -p tcp -e 592 -c 1 -i 18 -a 1 -x {2.0 1.0 -1 ------- null}
+ -t 3.21742391885714 -s 2 -d 0 -p tcp -e 592 -c 1 -i 19 -a 1 -x {2.0 1.0 4 ------- null}
- -t 3.21789751885714 -s 2 -d 0 -p tcp -e 592 -c 1 -i 19 -a 1 -x {2.0 1.0 4 ------- null}
h -t 3.21789751885714 -s 2 -d 0 -p tcp -e 592 -c 1 -i 19 -a 1 -x {2.0 1.0 -1 ------- null}
r -t 3.21889751885714 -s 2 -d 0 -p tcp -e 592 -c 1 -i 18 -a 1 -x {2.0 1.0 3 ------- null}
+ -t 3.21889751885714 -s 0 -d 1 -p tcp -e 592 -c 1 -i 18 -a 1 -x {2.0 1.0 3 ------- null}
- -t 3.21889751885714 -s 0 -d 1 -p tcp -e 592 -c 1 -i 18 -a 1 -x {2.0 1.0 3 ------- null}
h -t 3.21889751885714 -s 0 -d 1 -p tcp -e 592 -c 1 -i 18 -a 1 -x {2.0 1.0 -1 ------- null}
r -t 3.21937111885714 -s 2 -d 0 -p tcp -e 592 -c 1 -i 19 -a 1 -x {2.0 1.0 4 ------- null}
+ -t 3.21937111885714 -s 0 -d 1 -p tcp -e 592 -c 1 -i 19 -a 1 -x {2.0 1.0 4 ------- null}
r -t 3.22315763314286 -s 1 -d 0 -p ack -e 40 -c 1 -i 13 -a 1 -x {1.0 2.0 2 ------- null}
+ -t 3.22315763314286 -s 0 -d 2 -p ack -e 40 -c 1 -i 13 -a 1 -x {1.0 2.0 2 ------- null}
- -t 3.22315763314286 -s 0 -d 2 -p ack -e 40 -c 1 -i 13 -a 1 -x {1.0 2.0 2 ------- null}
h -t 3.22315763314286 -s 0 -d 2 -p ack -e 40 -c 1 -i 13 -a 1 -x {1.0 2.0 -1 ------- null}
r -t 3.22418963314286 -s 0 -d 2 -p ack -e 40 -c 1 -i 13 -a 1 -x {1.0 2.0 2 ------- null}
+ -t 3.22418963314286 -s 2 -d 0 -p tcp -e 592 -c 1 -i 20 -a 1 -x {2.0 1.0 5 ------- null}
- -t 3.22418963314286 -s 2 -d 0 -p tcp -e 592 -c 1 -i 20 -a 1 -x {2.0 1.0 5 ------- null}
h -t 3.22418963314286 -s 2 -d 0 -p tcp -e 592 -c 1 -i 20 -a 1 -x {2.0 1.0 -1 ------- null}
+ -t 3.22418963314286 -s 2 -d 0 -p tcp -e 592 -c 1 -i 21 -a 1 -x {2.0 1.0 6 ------- null}
- -t 3.22466323314286 -s 2 -d 0 -p tcp -e 592 -c 1 -i 21 -a 1 -x {2.0 1.0 6 ------- null}
h -t 3.22466323314286 -s 2 -d 0 -p tcp -e 592 -c 1 -i 21 -a 1 -x {2.0 1.0 -1 ------- null}
- -t 3.22566323314286 -s 0 -d 1 -p tcp -e 592 -c 1 -i 19 -a 1 -x {2.0 1.0 4 ------- null}
h -t 3.22566323314286 -s 0 -d 1 -p tcp -e 592 -c 1 -i 19 -a 1 -x {2.0 1.0 -1 ------- null}
r -t 3.22566323314286 -s 2 -d 0 -p tcp -e 592 -c 1 -i 20 -a 1 -x {2.0 1.0 5 ------- null}
+ -t 3.22566323314286 -s 0 -d 1 -p tcp -e 592 -c 1 -i 20 -a 1 -x {2.0 1.0 5 ------- null}
r -t 3.22613683314286 -s 2 -d 0 -p tcp -e 592 -c 1 -i 21 -a 1 -x {2.0 1.0 6 ------- null}
+ -t 3.22613683314286 -s 0 -d 1 -p tcp -e 592 -c 1 -i 21 -a 1 -x {2.0 1.0 6 ------- null}
- -t 3.23242894742857 -s 0 -d 1 -p tcp -e 592 -c 1 -i 20 -a 1 -x {2.0 1.0 5 ------- null}
h -t 3.23242894742857 -s 0 -d 1 -p tcp -e 592 -c 1 -i 20 -a 1 -x {2.0 1.0 -1 ------- null}
- -t 3.23919466171429 -s 0 -d 1 -p tcp -e 592 -c 1 -i 21 -a 1 -x {2.0 1.0 6 ------- null}
h -t 3.23919466171429 -s 0 -d 1 -p tcp -e 592 -c 1 -i 21 -a 1 -x {2.0 1.0 -1 ------- null}
r -t 3.41050304285714 -s 1 -d 0 -p ack -e 40 -c 3 -i 14 -a 3 -x {1.2 4.0 1 ------- null}
+ -t 3.41050304285714 -s 0 -d 4 -p ack -e 40 -c 3 -i 14 -a 3 -x {1.2 4.0 1 ------- null}
- -t 3.41050304285714 -s 0 -d 4 -p ack -e 40 -c 3 -i 14 -a 3 -x {1.2 4.0 1 ------- null}
h -t 3.41050304285714 -s 0 -d 4 -p ack -e 40 -c 3 -i 14 -a 3 -x {1.2 4.0 -1 ------- null}
r -t 3.41153504285714 -s 0 -d 4 -p ack -e 40 -c 3 -i 14 -a 3 -x {1.2 4.0 1 ------- null}
+ -t 3.41153504285714 -s 4 -d 0 -p tcp -e 592 -c 3 -i 22 -a 3 -x {4.0 1.2 3 ------- null}
- -t 3.41153504285714 -s 4 -d 0 -p tcp -e 592 -c 3 -i 22 -a 3 -x {4.0 1.2 3 ------- null}
h -t 3.41153504285714 -s 4 -d 0 -p tcp -e 592 -c 3 -i 22 -a 3 -x {4.0 1.2 -1 ------- null}
+ -t 3.41153504285714 -s 4 -d 0 -p tcp -e 592 -c 3 -i 23 -a 3 -x {4.0 1.2 4 ------- null}
- -t 3.41200864285714 -s 4 -d 0 -p tcp -e 592 -c 3 -i 23 -a 3 -x {4.0 1.2 4 ------- null}
h -t 3.41200864285714 -s 4 -d 0 -p tcp -e 592 -c 3 -i 23 -a 3 -x {4.0 1.2 -1 ------- null}
r -t 3.41300864285714 -s 4 -d 0 -p tcp -e 592 -c 3 -i 22 -a 3 -x {4.0 1.2 3 ------- null}
+ -t 3.41300864285714 -s 0 -d 1 -p tcp -e 592 -c 3 -i 22 -a 3 -x {4.0 1.2 3 ------- null}
- -t 3.41300864285714 -s 0 -d 1 -p tcp -e 592 -c 3 -i 22 -a 3 -x {4.0 1.2 3 ------- null}
h -t 3.41300864285714 -s 0 -d 1 -p tcp -e 592 -c 3 -i 22 -a 3 -x {4.0 1.2 -1 ------- null}
r -t 3.41348224285714 -s 4 -d 0 -p tcp -e 592 -c 3 -i 23 -a 3 -x {4.0 1.2 4 ------- null}
+ -t 3.41348224285714 -s 0 -d 1 -p tcp -e 592 -c 3 -i 23 -a 3 -x {4.0 1.2 4 ------- null}
r -t 3.41726875714286 -s 1 -d 0 -p ack -e 40 -c 3 -i 15 -a 3 -x {1.2 4.0 2 ------- null}
+ -t 3.41726875714286 -s 0 -d 4 -p ack -e 40 -c 3 -i 15 -a 3 -x {1.2 4.0 2 ------- null}
- -t 3.41726875714286 -s 0 -d 4 -p ack -e 40 -c 3 -i 15 -a 3 -x {1.2 4.0 2 ------- null}
h -t 3.41726875714286 -s 0 -d 4 -p ack -e 40 -c 3 -i 15 -a 3 -x {1.2 4.0 -1 ------- null}
r -t 3.41830075714286 -s 0 -d 4 -p ack -e 40 -c 3 -i 15 -a 3 -x {1.2 4.0 2 ------- null}
+ -t 3.41830075714286 -s 4 -d 0 -p tcp -e 592 -c 3 -i 24 -a 3 -x {4.0 1.2 5 ------- null}
- -t 3.41830075714286 -s 4 -d 0 -p tcp -e 592 -c 3 -i 24 -a 3 -x {4.0 1.2 5 ------- null}
h -t 3.41830075714286 -s 4 -d 0 -p tcp -e 592 -c 3 -i 24 -a 3 -x {4.0 1.2 -1 ------- null}
+ -t 3.41830075714286 -s 4 -d 0 -p tcp -e 592 -c 3 -i 25 -a 3 -x {4.0 1.2 6 ------- null}
- -t 3.41877435714286 -s 4 -d 0 -p tcp -e 592 -c 3 -i 25 -a 3 -x {4.0 1.2 6 ------- null}
h -t 3.41877435714286 -s 4 -d 0 -p tcp -e 592 -c 3 -i 25 -a 3 -x {4.0 1.2 -1 ------- null}
- -t 3.41977435714286 -s 0 -d 1 -p tcp -e 592 -c 3 -i 23 -a 3 -x {4.0 1.2 4 ------- null}
h -t 3.41977435714286 -s 0 -d 1 -p tcp -e 592 -c 3 -i 23 -a 3 -x {4.0 1.2 -1 ------- null}
r -t 3.41977435714286 -s 4 -d 0 -p tcp -e 592 -c 3 -i 24 -a 3 -x {4.0 1.2 5 ------- null}
+ -t 3.41977435714286 -s 0 -d 1 -p tcp -e 592 -c 3 -i 24 -a 3 -x {4.0 1.2 5 ------- null}
r -t 3.42024795714286 -s 4 -d 0 -p tcp -e 592 -c 3 -i 25 -a 3 -x {4.0 1.2 6 ------- null}
+ -t 3.42024795714286 -s 0 -d 1 -p tcp -e 592 -c 3 -i 25 -a 3 -x {4.0 1.2 6 ------- null}
- -t 3.42654007142857 -s 0 -d 1 -p tcp -e 592 -c 3 -i 24 -a 3 -x {4.0 1.2 5 ------- null}
h -t 3.42654007142857 -s 0 -d 1 -p tcp -e 592 -c 3 -i 24 -a 3 -x {4.0 1.2 -1 ------- null}
- -t 3.43330578571429 -s 0 -d 1 -p tcp -e 592 -c 3 -i 25 -a 3 -x {4.0 1.2 6 ------- null}
h -t 3.43330578571429 -s 0 -d 1 -p tcp -e 592 -c 3 -i 25 -a 3 -x {4.0 1.2 -1 ------- null}
r -t 3.99400474285714 -s 1 -d 0 -p ack -e 40 -c 2 -i 16 -a 2 -x {1.1 3.0 1 ------- null}
+ -t 3.99400474285714 -s 0 -d 3 -p ack -e 40 -c 2 -i 16 -a 2 -x {1.1 3.0 1 ------- null}
- -t 3.99400474285714 -s 0 -d 3 -p ack -e 40 -c 2 -i 16 -a 2 -x {1.1 3.0 1 ------- null}
h -t 3.99400474285714 -s 0 -d 3 -p ack -e 40 -c 2 -i 16 -a 2 -x {1.1 3.0 -1 ------- null}
r -t 3.99503674285714 -s 0 -d 3 -p ack -e 40 -c 2 -i 16 -a 2 -x {1.1 3.0 1 ------- null}
+ -t 3.99503674285714 -s 3 -d 0 -p tcp -e 592 -c 2 -i 26 -a 2 -x {3.0 1.1 3 ------- null}
- -t 3.99503674285714 -s 3 -d 0 -p tcp -e 592 -c 2 -i 26 -a 2 -x {3.0 1.1 3 ------- null}
h -t 3.99503674285714 -s 3 -d 0 -p tcp -e 592 -c 2 -i 26 -a 2 -x {3.0 1.1 -1 ------- null}
+ -t 3.99503674285714 -s 3 -d 0 -p tcp -e 592 -c 2 -i 27 -a 2 -x {3.0 1.1 4 ------- null}
- -t 3.99551034285714 -s 3 -d 0 -p tcp -e 592 -c 2 -i 27 -a 2 -x {3.0 1.1 4 ------- null}
h -t 3.99551034285714 -s 3 -d 0 -p tcp -e 592 -c 2 -i 27 -a 2 -x {3.0 1.1 -1 ------- null}
r -t 3.99651034285714 -s 3 -d 0 -p tcp -e 592 -c 2 -i 26 -a 2 -x {3.0 1.1 3 ------- null}
+ -t 3.99651034285714 -s 0 -d 1 -p tcp -e 592 -c 2 -i 26 -a 2 -x {3.0 1.1 3 ------- null}
- -t 3.99651034285714 -s 0 -d 1 -p tcp -e 592 -c 2 -i 26 -a 2 -x {3.0 1.1 3 ------- null}
h -t 3.99651034285714 -s 0 -d 1 -p tcp -e 592 -c 2 -i 26 -a 2 -x {3.0 1.1 -1 ------- null}
r -t 3.99698394285714 -s 3 -d 0 -p tcp -e 592 -c 2 -i 27 -a 2 -x {3.0 1.1 4 ------- null}
+ -t 3.99698394285714 -s 0 -d 1 -p tcp -e 592 -c 2 -i 27 -a 2 -x {3.0 1.1 4 ------- null}
r -t 4.00077045714286 -s 1 -d 0 -p ack -e 40 -c 2 -i 17 -a 2 -x {1.1 3.0 2 ------- null}
+ -t 4.00077045714286 -s 0 -d 3 -p ack -e 40 -c 2 -i 17 -a 2 -x {1.1 3.0 2 ------- null}
- -t 4.00077045714286 -s 0 -d 3 -p ack -e 40 -c 2 -i 17 -a 2 -x {1.1 3.0 2 ------- null}
h -t 4.00077045714286 -s 0 -d 3 -p ack -e 40 -c 2 -i 17 -a 2 -x {1.1 3.0 -1 ------- null}
r -t 4.00180245714286 -s 0 -d 3 -p ack -e 40 -c 2 -i 17 -a 2 -x {1.1 3.0 2 ------- null}
+ -t 4.00180245714286 -s 3 -d 0 -p tcp -e 592 -c 2 -i 28 -a 2 -x {3.0 1.1 5 ------- null}
- -t 4.00180245714286 -s 3 -d 0 -p tcp -e 592 -c 2 -i 28 -a 2 -x {3.0 1.1 5 ------- null}
h -t 4.00180245714286 -s 3 -d 0 -p tcp -e 592 -c 2 -i 28 -a 2 -x {3.0 1.1 -1 ------- null}
+ -t 4.00180245714286 -s 3 -d 0 -p tcp -e 592 -c 2 -i 29 -a 2 -x {3.0 1.1 6 ------- null}
- -t 4.00227605714286 -s 3 -d 0 -p tcp -e 592 -c 2 -i 29 -a 2 -x {3.0 1.1 6 ------- null}
h -t 4.00227605714286 -s 3 -d 0 -p tcp -e 592 -c 2 -i 29 -a 2 -x {3.0 1.1 -1 ------- null}
r -t 4.00327605714286 -s 3 -d 0 -p tcp -e 592 -c 2 -i 28 -a 2 -x {3.0 1.1 5 ------- null}
+ -t 4.00327605714286 -s 0 -d 1 -p tcp -e 592 -c 2 -i 28 -a 2 -x {3.0 1.1 5 ------- null}
- -t 4.00327605714286 -s 0 -d 1 -p tcp -e 592 -c 2 -i 27 -a 2 -x {3.0 1.1 4 ------- null}
h -t 4.00327605714286 -s 0 -d 1 -p tcp -e 592 -c 2 -i 27 -a 2 -x {3.0 1.1 -1 ------- null}
r -t 4.00374965714286 -s 3 -d 0 -p tcp -e 592 -c 2 -i 29 -a 2 -x {3.0 1.1 6 ------- null}
+ -t 4.00374965714286 -s 0 -d 1 -p tcp -e 592 -c 2 -i 29 -a 2 -x {3.0 1.1 6 ------- null}
- -t 4.01004177142857 -s 0 -d 1 -p tcp -e 592 -c 2 -i 28 -a 2 -x {3.0 1.1 5 ------- null}
h -t 4.01004177142857 -s 0 -d 1 -p tcp -e 592 -c 2 -i 28 -a 2 -x {3.0 1.1 -1 ------- null}
- -t 4.01680748571429 -s 0 -d 1 -p tcp -e 592 -c 2 -i 29 -a 2 -x {3.0 1.1 6 ------- null}
h -t 4.01680748571429 -s 0 -d 1 -p tcp -e 592 -c 2 -i 29 -a 2 -x {3.0 1.1 -1 ------- null}
r -t 4.02566323314286 -s 0 -d 1 -p tcp -e 592 -c 1 -i 18 -a 1 -x {2.0 1.0 3 ------- null}
+ -t 4.02566323314286 -s 1 -d 0 -p ack -e 40 -c 1 -i 30 -a 1 -x {1.0 2.0 3 ------- null}
- -t 4.02566323314286 -s 1 -d 0 -p ack -e 40 -c 1 -i 30 -a 1 -x {1.0 2.0 3 ------- null}
h -t 4.02566323314286 -s 1 -d 0 -p ack -e 40 -c 1 -i 30 -a 1 -x {1.0 2.0 -1 ------- null}
r -t 4.03242894742857 -s 0 -d 1 -p tcp -e 592 -c 1 -i 19 -a 1 -x {2.0 1.0 4 ------- null}
+ -t 4.03242894742857 -s 1 -d 0 -p ack -e 40 -c 1 -i 31 -a 1 -x {1.0 2.0 4 ------- null}
- -t 4.03242894742857 -s 1 -d 0 -p ack -e 40 -c 1 -i 31 -a 1 -x {1.0 2.0 4 ------- null}
h -t 4.03242894742857 -s 1 -d 0 -p ack -e 40 -c 1 -i 31 -a 1 -x {1.0 2.0 -1 ------- null}
r -t 4.03919466171429 -s 0 -d 1 -p tcp -e 592 -c 1 -i 20 -a 1 -x {2.0 1.0 5 ------- null}
+ -t 4.03919466171429 -s 1 -d 0 -p ack -e 40 -c 1 -i 32 -a 1 -x {1.0 2.0 5 ------- null}
- -t 4.03919466171429 -s 1 -d 0 -p ack -e 40 -c 1 -i 32 -a 1 -x {1.0 2.0 5 ------- null}
h -t 4.03919466171429 -s 1 -d 0 -p ack -e 40 -c 1 -i 32 -a 1 -x {1.0 2.0 -1 ------- null}
r -t 4.045960376 -s 0 -d 1 -p tcp -e 592 -c 1 -i 21 -a 1 -x {2.0 1.0 6 ------- null}
+ -t 4.045960376 -s 1 -d 0 -p ack -e 40 -c 1 -i 33 -a 1 -x {1.0 2.0 6 ------- null}
- -t 4.045960376 -s 1 -d 0 -p ack -e 40 -c 1 -i 33 -a 1 -x {1.0 2.0 6 ------- null}
h -t 4.045960376 -s 1 -d 0 -p ack -e 40 -c 1 -i 33 -a 1 -x {1.0 2.0 -1 ------- null}
r -t 4.21977435714286 -s 0 -d 1 -p tcp -e 592 -c 3 -i 22 -a 3 -x {4.0 1.2 3 ------- null}
+ -t 4.21977435714286 -s 1 -d 0 -p ack -e 40 -c 3 -i 34 -a 3 -x {1.2 4.0 3 ------- null}
- -t 4.21977435714286 -s 1 -d 0 -p ack -e 40 -c 3 -i 34 -a 3 -x {1.2 4.0 3 ------- null}
h -t 4.21977435714286 -s 1 -d 0 -p ack -e 40 -c 3 -i 34 -a 3 -x {1.2 4.0 -1 ------- null}
r -t 4.22654007142857 -s 0 -d 1 -p tcp -e 592 -c 3 -i 23 -a 3 -x {4.0 1.2 4 ------- null}
+ -t 4.22654007142857 -s 1 -d 0 -p ack -e 40 -c 3 -i 35 -a 3 -x {1.2 4.0 4 ------- null}
- -t 4.22654007142857 -s 1 -d 0 -p ack -e 40 -c 3 -i 35 -a 3 -x {1.2 4.0 4 ------- null}
h -t 4.22654007142857 -s 1 -d 0 -p ack -e 40 -c 3 -i 35 -a 3 -x {1.2 4.0 -1 ------- null}
r -t 4.23330578571429 -s 0 -d 1 -p tcp -e 592 -c 3 -i 24 -a 3 -x {4.0 1.2 5 ------- null}
+ -t 4.23330578571429 -s 1 -d 0 -p ack -e 40 -c 3 -i 36 -a 3 -x {1.2 4.0 5 ------- null}
- -t 4.23330578571429 -s 1 -d 0 -p ack -e 40 -c 3 -i 36 -a 3 -x {1.2 4.0 5 ------- null}
h -t 4.23330578571429 -s 1 -d 0 -p ack -e 40 -c 3 -i 36 -a 3 -x {1.2 4.0 -1 ------- null}
r -t 4.2400715 -s 0 -d 1 -p tcp -e 592 -c 3 -i 25 -a 3 -x {4.0 1.2 6 ------- null}
+ -t 4.2400715 -s 1 -d 0 -p ack -e 40 -c 3 -i 37 -a 3 -x {1.2 4.0 6 ------- null}
- -t 4.2400715 -s 1 -d 0 -p ack -e 40 -c 3 -i 37 -a 3 -x {1.2 4.0 6 ------- null}
h -t 4.2400715 -s 1 -d 0 -p ack -e 40 -c 3 -i 37 -a 3 -x {1.2 4.0 -1 ------- null}
r -t 4.80327605714286 -s 0 -d 1 -p tcp -e 592 -c 2 -i 26 -a 2 -x {3.0 1.1 3 ------- null}
+ -t 4.80327605714286 -s 1 -d 0 -p ack -e 40 -c 2 -i 38 -a 2 -x {1.1 3.0 3 ------- null}
- -t 4.80327605714286 -s 1 -d 0 -p ack -e 40 -c 2 -i 38 -a 2 -x {1.1 3.0 3 ------- null}
h -t 4.80327605714286 -s 1 -d 0 -p ack -e 40 -c 2 -i 38 -a 2 -x {1.1 3.0 -1 ------- null}
r -t 4.81004177142857 -s 0 -d 1 -p tcp -e 592 -c 2 -i 27 -a 2 -x {3.0 1.1 4 ------- null}
+ -t 4.81004177142857 -s 1 -d 0 -p ack -e 40 -c 2 -i 39 -a 2 -x {1.1 3.0 4 ------- null}
- -t 4.81004177142857 -s 1 -d 0 -p ack -e 40 -c 2 -i 39 -a 2 -x {1.1 3.0 4 ------- null}
h -t 4.81004177142857 -s 1 -d 0 -p ack -e 40 -c 2 -i 39 -a 2 -x {1.1 3.0 -1 ------- null}
r -t 4.81680748571429 -s 0 -d 1 -p tcp -e 592 -c 2 -i 28 -a 2 -x {3.0 1.1 5 ------- null}
+ -t 4.81680748571429 -s 1 -d 0 -p ack -e 40 -c 2 -i 40 -a 2 -x {1.1 3.0 5 ------- null}
- -t 4.81680748571429 -s 1 -d 0 -p ack -e 40 -c 2 -i 40 -a 2 -x {1.1 3.0 5 ------- null}
h -t 4.81680748571429 -s 1 -d 0 -p ack -e 40 -c 2 -i 40 -a 2 -x {1.1 3.0 -1 ------- null}
r -t 4.8235732 -s 0 -d 1 -p tcp -e 592 -c 2 -i 29 -a 2 -x {3.0 1.1 6 ------- null}
+ -t 4.8235732 -s 1 -d 0 -p ack -e 40 -c 2 -i 41 -a 2 -x {1.1 3.0 6 ------- null}
- -t 4.8235732 -s 1 -d 0 -p ack -e 40 -c 2 -i 41 -a 2 -x {1.1 3.0 6 ------- null}
h -t 4.8235732 -s 1 -d 0 -p ack -e 40 -c 2 -i 41 -a 2 -x {1.1 3.0 -1 ------- null}
r -t 4.826120376 -s 1 -d 0 -p ack -e 40 -c 1 -i 30 -a 1 -x {1.0 2.0 3 ------- null}
+ -t 4.826120376 -s 0 -d 2 -p ack -e 40 -c 1 -i 30 -a 1 -x {1.0 2.0 3 ------- null}
- -t 4.826120376 -s 0 -d 2 -p ack -e 40 -c 1 -i 30 -a 1 -x {1.0 2.0 3 ------- null}
h -t 4.826120376 -s 0 -d 2 -p ack -e 40 -c 1 -i 30 -a 1 -x {1.0 2.0 -1 ------- null}
r -t 4.827152376 -s 0 -d 2 -p ack -e 40 -c 1 -i 30 -a 1 -x {1.0 2.0 3 ------- null}
+ -t 4.827152376 -s 2 -d 0 -p tcp -e 592 -c 1 -i 42 -a 1 -x {2.0 1.0 7 ------- null}
- -t 4.827152376 -s 2 -d 0 -p tcp -e 592 -c 1 -i 42 -a 1 -x {2.0 1.0 7 ------- null}
h -t 4.827152376 -s 2 -d 0 -p tcp -e 592 -c 1 -i 42 -a 1 -x {2.0 1.0 -1 ------- null}
+ -t 4.827152376 -s 2 -d 0 -p tcp -e 592 -c 1 -i 43 -a 1 -x {2.0 1.0 8 ------- null}
- -t 4.827625976 -s 2 -d 0 -p tcp -e 592 -c 1 -i 43 -a 1 -x {2.0 1.0 8 ------- null}
h -t 4.827625976 -s 2 -d 0 -p tcp -e 592 -c 1 -i 43 -a 1 -x {2.0 1.0 -1 ------- null}
r -t 4.828625976 -s 2 -d 0 -p tcp -e 592 -c 1 -i 42 -a 1 -x {2.0 1.0 7 ------- null}
+ -t 4.828625976 -s 0 -d 1 -p tcp -e 592 -c 1 -i 42 -a 1 -x {2.0 1.0 7 ------- null}
- -t 4.828625976 -s 0 -d 1 -p tcp -e 592 -c 1 -i 42 -a 1 -x {2.0 1.0 7 ------- null}
h -t 4.828625976 -s 0 -d 1 -p tcp -e 592 -c 1 -i 42 -a 1 -x {2.0 1.0 -1 ------- null}
r -t 4.829099576 -s 2 -d 0 -p tcp -e 592 -c 1 -i 43 -a 1 -x {2.0 1.0 8 ------- null}
+ -t 4.829099576 -s 0 -d 1 -p tcp -e 592 -c 1 -i 43 -a 1 -x {2.0 1.0 8 ------- null}
r -t 4.83288609028571 -s 1 -d 0 -p ack -e 40 -c 1 -i 31 -a 1 -x {1.0 2.0 4 ------- null}
+ -t 4.83288609028571 -s 0 -d 2 -p ack -e 40 -c 1 -i 31 -a 1 -x {1.0 2.0 4 ------- null}
- -t 4.83288609028571 -s 0 -d 2 -p ack -e 40 -c 1 -i 31 -a 1 -x {1.0 2.0 4 ------- null}
h -t 4.83288609028571 -s 0 -d 2 -p ack -e 40 -c 1 -i 31 -a 1 -x {1.0 2.0 -1 ------- null}
r -t 4.83391809028571 -s 0 -d 2 -p ack -e 40 -c 1 -i 31 -a 1 -x {1.0 2.0 4 ------- null}
+ -t 4.83391809028571 -s 2 -d 0 -p tcp -e 592 -c 1 -i 44 -a 1 -x {2.0 1.0 9 ------- null}
- -t 4.83391809028571 -s 2 -d 0 -p tcp -e 592 -c 1 -i 44 -a 1 -x {2.0 1.0 9 ------- null}
h -t 4.83391809028571 -s 2 -d 0 -p tcp -e 592 -c 1 -i 44 -a 1 -x {2.0 1.0 -1 ------- null}
+ -t 4.83391809028571 -s 2 -d 0 -p tcp -e 592 -c 1 -i 45 -a 1 -x {2.0 1.0 10 ------- null}
- -t 4.83439169028571 -s 2 -d 0 -p tcp -e 592 -c 1 -i 45 -a 1 -x {2.0 1.0 10 ------- null}
h -t 4.83439169028571 -s 2 -d 0 -p tcp -e 592 -c 1 -i 45 -a 1 -x {2.0 1.0 -1 ------- null}
- -t 4.83539169028571 -s 0 -d 1 -p tcp -e 592 -c 1 -i 43 -a 1 -x {2.0 1.0 8 ------- null}
h -t 4.83539169028571 -s 0 -d 1 -p tcp -e 592 -c 1 -i 43 -a 1 -x {2.0 1.0 -1 ------- null}
r -t 4.83539169028571 -s 2 -d 0 -p tcp -e 592 -c 1 -i 44 -a 1 -x {2.0 1.0 9 ------- null}
+ -t 4.83539169028571 -s 0 -d 1 -p tcp -e 592 -c 1 -i 44 -a 1 -x {2.0 1.0 9 ------- null}
r -t 4.83586529028571 -s 2 -d 0 -p tcp -e 592 -c 1 -i 45 -a 1 -x {2.0 1.0 10 ------- null}
+ -t 4.83586529028571 -s 0 -d 1 -p tcp -e 592 -c 1 -i 45 -a 1 -x {2.0 1.0 10 ------- null}
r -t 4.83965180457143 -s 1 -d 0 -p ack -e 40 -c 1 -i 32 -a 1 -x {1.0 2.0 5 ------- null}
+ -t 4.83965180457143 -s 0 -d 2 -p ack -e 40 -c 1 -i 32 -a 1 -x {1.0 2.0 5 ------- null}
- -t 4.83965180457143 -s 0 -d 2 -p ack -e 40 -c 1 -i 32 -a 1 -x {1.0 2.0 5 ------- null}
h -t 4.83965180457143 -s 0 -d 2 -p ack -e 40 -c 1 -i 32 -a 1 -x {1.0 2.0 -1 ------- null}
r -t 4.84068380457143 -s 0 -d 2 -p ack -e 40 -c 1 -i 32 -a 1 -x {1.0 2.0 5 ------- null}
+ -t 4.84068380457143 -s 2 -d 0 -p tcp -e 592 -c 1 -i 46 -a 1 -x {2.0 1.0 11 ------- null}
- -t 4.84068380457143 -s 2 -d 0 -p tcp -e 592 -c 1 -i 46 -a 1 -x {2.0 1.0 11 ------- null}
h -t 4.84068380457143 -s 2 -d 0 -p tcp -e 592 -c 1 -i 46 -a 1 -x {2.0 1.0 -1 ------- null}
+ -t 4.84068380457143 -s 2 -d 0 -p tcp -e 592 -c 1 -i 47 -a 1 -x {2.0 1.0 12 ------- null}
- -t 4.84115740457143 -s 2 -d 0 -p tcp -e 592 -c 1 -i 47 -a 1 -x {2.0 1.0 12 ------- null}
h -t 4.84115740457143 -s 2 -d 0 -p tcp -e 592 -c 1 -i 47 -a 1 -x {2.0 1.0 -1 ------- null}
r -t 4.84215740457143 -s 2 -d 0 -p tcp -e 592 -c 1 -i 46 -a 1 -x {2.0 1.0 11 ------- null}
+ -t 4.84215740457143 -s 0 -d 1 -p tcp -e 592 -c 1 -i 46 -a 1 -x {2.0 1.0 11 ------- null}
- -t 4.84215740457143 -s 0 -d 1 -p tcp -e 592 -c 1 -i 44 -a 1 -x {2.0 1.0 9 ------- null}
h -t 4.84215740457143 -s 0 -d 1 -p tcp -e 592 -c 1 -i 44 -a 1 -x {2.0 1.0 -1 ------- null}
r -t 4.84263100457143 -s 2 -d 0 -p tcp -e 592 -c 1 -i 47 -a 1 -x {2.0 1.0 12 ------- null}
+ -t 4.84263100457143 -s 0 -d 1 -p tcp -e 592 -c 1 -i 47 -a 1 -x {2.0 1.0 12 ------- null}
r -t 4.84641751885714 -s 1 -d 0 -p ack -e 40 -c 1 -i 33 -a 1 -x {1.0 2.0 6 ------- null}
+ -t 4.84641751885714 -s 0 -d 2 -p ack -e 40 -c 1 -i 33 -a 1 -x {1.0 2.0 6 ------- null}
- -t 4.84641751885714 -s 0 -d 2 -p ack -e 40 -c 1 -i 33 -a 1 -x {1.0 2.0 6 ------- null}
h -t 4.84641751885714 -s 0 -d 2 -p ack -e 40 -c 1 -i 33 -a 1 -x {1.0 2.0 -1 ------- null}