+ 0.004717 2 0 tcp 40 ------- 1 2.0 1.0 0 0
- 0.004717 2 0 tcp 40 ------- 1 2.0 1.0 0 0
r 0.005749 2 0 tcp 40 ------- 1 2.0 1.0 0 0
+ 0.005749 0 1 tcp 40 ------- 1 2.0 1.0 0 0
- 0.005749 0 1 tcp 40 ------- 1 2.0 1.0 0 0
+ 0.198828 4 0 tcp 40 ------- 3 4.0 1.2 0 1
- 0.198828 4 0 tcp 40 ------- 3 4.0 1.2 0 1
r 0.19986 4 0 tcp 40 ------- 3 4.0 1.2 0 1
+ 0.19986 0 1 tcp 40 ------- 3 4.0 1.2 0 1
- 0.19986 0 1 tcp 40 ------- 3 4.0 1.2 0 1
+ 0.78233 3 0 tcp 40 ------- 2 3.0 1.1 0 2
- 0.78233 3 0 tcp 40 ------- 2 3.0 1.1 0 2
r 0.783362 3 0 tcp 40 ------- 2 3.0 1.1 0 2
+ 0.783362 0 1 tcp 40 ------- 2 3.0 1.1 0 2
- 0.783362 0 1 tcp 40 ------- 2 3.0 1.1 0 2
r 0.806206 0 1 tcp 40 ------- 1 2.0 1.0 0 0
+ 0.806206 1 0 ack 40 ------- 1 1.0 2.0 0 3
- 0.806206 1 0 ack 40 ------- 1 1.0 2.0 0 3
r 1.000317 0 1 tcp 40 ------- 3 4.0 1.2 0 1
+ 1.000317 1 0 ack 40 ------- 3 1.2 4.0 0 4
- 1.000317 1 0 ack 40 ------- 3 1.2 4.0 0 4
r 1.583819 0 1 tcp 40 ------- 2 3.0 1.1 0 2
+ 1.583819 1 0 ack 40 ------- 2 1.1 3.0 0 5
- 1.583819 1 0 ack 40 ------- 2 1.1 3.0 0 5
r 1.606663 1 0 ack 40 ------- 1 1.0 2.0 0 3
+ 1.606663 0 2 ack 40 ------- 1 1.0 2.0 0 3
- 1.606663 0 2 ack 40 ------- 1 1.0 2.0 0 3
r 1.607695 0 2 ack 40 ------- 1 1.0 2.0 0 3
+ 1.607695 2 0 tcp 592 ------- 1 2.0 1.0 1 6
- 1.607695 2 0 tcp 592 ------- 1 2.0 1.0 1 6
+ 1.607695 2 0 tcp 592 ------- 1 2.0 1.0 2 7
- 1.608169 2 0 tcp 592 ------- 1 2.0 1.0 2 7
r 1.609169 2 0 tcp 592 ------- 1 2.0 1.0 1 6
+ 1.609169 0 1 tcp 592 ------- 1 2.0 1.0 1 6
- 1.609169 0 1 tcp 592 ------- 1 2.0 1.0 1 6
r 1.609643 2 0 tcp 592 ------- 1 2.0 1.0 2 7
+ 1.609643 0 1 tcp 592 ------- 1 2.0 1.0 2 7
- 1.615935 0 1 tcp 592 ------- 1 2.0 1.0 2 7
r 1.800775 1 0 ack 40 ------- 3 1.2 4.0 0 4
+ 1.800775 0 4 ack 40 ------- 3 1.2 4.0 0 4
- 1.800775 0 4 ack 40 ------- 3 1.2 4.0 0 4
r 1.801807 0 4 ack 40 ------- 3 1.2 4.0 0 4
+ 1.801807 4 0 tcp 592 ------- 3 4.0 1.2 1 8
- 1.801807 4 0 tcp 592 ------- 3 4.0 1.2 1 8
+ 1.801807 4 0 tcp 592 ------- 3 4.0 1.2 2 9
- 1.80228 4 0 tcp 592 ------- 3 4.0 1.2 2 9
r 1.80328 4 0 tcp 592 ------- 3 4.0 1.2 1 8
+ 1.80328 0 1 tcp 592 ------- 3 4.0 1.2 1 8
- 1.80328 0 1 tcp 592 ------- 3 4.0 1.2 1 8
r 1.803754 4 0 tcp 592 ------- 3 4.0 1.2 2 9
+ 1.803754 0 1 tcp 592 ------- 3 4.0 1.2 2 9
- 1.810046 0 1 tcp 592 ------- 3 4.0 1.2 2 9
r 2.384276 1 0 ack 40 ------- 2 1.1 3.0 0 5
+ 2.384276 0 3 ack 40 ------- 2 1.1 3.0 0 5
- 2.384276 0 3 ack 40 ------- 2 1.1 3.0 0 5
r 2.385308 0 3 ack 40 ------- 2 1.1 3.0 0 5
+ 2.385308 3 0 tcp 592 ------- 2 3.0 1.1 1 10
- 2.385308 3 0 tcp 592 ------- 2 3.0 1.1 1 10
+ 2.385308 3 0 tcp 592 ------- 2 3.0 1.1 2 11
- 2.385782 3 0 tcp 592 ------- 2 3.0 1.1 2 11
r 2.386782 3 0 tcp 592 ------- 2 3.0 1.1 1 10
+ 2.386782 0 1 tcp 592 ------- 2 3.0 1.1 1 10
- 2.386782 0 1 tcp 592 ------- 2 3.0 1.1 1 10
r 2.387255 3 0 tcp 592 ------- 2 3.0 1.1 2 11
+ 2.387255 0 1 tcp 592 ------- 2 3.0 1.1 2 11
- 2.393548 0 1 tcp 592 ------- 2 3.0 1.1 2 11
r 2.415935 0 1 tcp 592 ------- 1 2.0 1.0 1 6
+ 2.415935 1 0 ack 40 ------- 1 1.0 2.0 1 12
- 2.415935 1 0 ack 40 ------- 1 1.0 2.0 1 12
r 2.4227 0 1 tcp 592 ------- 1 2.0 1.0 2 7
+ 2.4227 1 0 ack 40 ------- 1 1.0 2.0 2 13
- 2.4227 1 0 ack 40 ------- 1 1.0 2.0 2 13
r 2.610046 0 1 tcp 592 ------- 3 4.0 1.2 1 8
+ 2.610046 1 0 ack 40 ------- 3 1.2 4.0 1 14
- 2.610046 1 0 ack 40 ------- 3 1.2 4.0 1 14
r 2.616812 0 1 tcp 592 ------- 3 4.0 1.2 2 9
+ 2.616812 1 0 ack 40 ------- 3 1.2 4.0 2 15
- 2.616812 1 0 ack 40 ------- 3 1.2 4.0 2 15
r 3.193548 0 1 tcp 592 ------- 2 3.0 1.1 1 10
+ 3.193548 1 0 ack 40 ------- 2 1.1 3.0 1 16
- 3.193548 1 0 ack 40 ------- 2 1.1 3.0 1 16
r 3.200313 0 1 tcp 592 ------- 2 3.0 1.1 2 11
+ 3.200313 1 0 ack 40 ------- 2 1.1 3.0 2 17
- 3.200313 1 0 ack 40 ------- 2 1.1 3.0 2 17
r 3.216392 1 0 ack 40 ------- 1 1.0 2.0 1 12
+ 3.216392 0 2 ack 40 ------- 1 1.0 2.0 1 12
- 3.216392 0 2 ack 40 ------- 1 1.0 2.0 1 12
r 3.217424 0 2 ack 40 ------- 1 1.0 2.0 1 12
+ 3.217424 2 0 tcp 592 ------- 1 2.0 1.0 3 18
- 3.217424 2 0 tcp 592 ------- 1 2.0 1.0 3 18
+ 3.217424 2 0 tcp 592 ------- 1 2.0 1.0 4 19
- 3.217898 2 0 tcp 592 ------- 1 2.0 1.0 4 19
r 3.218898 2 0 tcp 592 ------- 1 2.0 1.0 3 18
+ 3.218898 0 1 tcp 592 ------- 1 2.0 1.0 3 18
- 3.218898 0 1 tcp 592 ------- 1 2.0 1.0 3 18
r 3.219371 2 0 tcp 592 ------- 1 2.0 1.0 4 19
+ 3.219371 0 1 tcp 592 ------- 1 2.0 1.0 4 19
r 3.223158 1 0 ack 40 ------- 1 1.0 2.0 2 13
+ 3.223158 0 2 ack 40 ------- 1 1.0 2.0 2 13
- 3.223158 0 2 ack 40 ------- 1 1.0 2.0 2 13
r 3.22419 0 2 ack 40 ------- 1 1.0 2.0 2 13
+ 3.22419 2 0 tcp 592 ------- 1 2.0 1.0 5 20
- 3.22419 2 0 tcp 592 ------- 1 2.0 1.0 5 20
+ 3.22419 2 0 tcp 592 ------- 1 2.0 1.0 6 21
- 3.224663 2 0 tcp 592 ------- 1 2.0 1.0 6 21
- 3.225663 0 1 tcp 592 ------- 1 2.0 1.0 4 19
r 3.225663 2 0 tcp 592 ------- 1 2.0 1.0 5 20
+ 3.225663 0 1 tcp 592 ------- 1 2.0 1.0 5 20
r 3.226137 2 0 tcp 592 ------- 1 2.0 1.0 6 21
+ 3.226137 0 1 tcp 592 ------- 1 2.0 1.0 6 21
- 3.232429 0 1 tcp 592 ------- 1 2.0 1.0 5 20
- 3.239195 0 1 tcp 592 ------- 1 2.0 1.0 6 21
r 3.410503 1 0 ack 40 ------- 3 1.2 4.0 1 14
+ 3.410503 0 4 ack 40 ------- 3 1.2 4.0 1 14
- 3.410503 0 4 ack 40 ------- 3 1.2 4.0 1 14
r 3.411535 0 4 ack 40 ------- 3 1.2 4.0 1 14
+ 3.411535 4 0 tcp 592 ------- 3 4.0 1.2 3 22
- 3.411535 4 0 tcp 592 ------- 3 4.0 1.2 3 22
+ 3.411535 4 0 tcp 592 ------- 3 4.0 1.2 4 23
- 3.412009 4 0 tcp 592 ------- 3 4.0 1.2 4 23
r 3.413009 4 0 tcp 592 ------- 3 4.0 1.2 3 22
+ 3.413009 0 1 tcp 592 ------- 3 4.0 1.2 3 22
- 3.413009 0 1 tcp 592 ------- 3 4.0 1.2 3 22
r 3.413482 4 0 tcp 592 ------- 3 4.0 1.2 4 23
+ 3.413482 0 1 tcp 592 ------- 3 4.0 1.2 4 23
r 3.417269 1 0 ack 40 ------- 3 1.2 4.0 2 15
+ 3.417269 0 4 ack 40 ------- 3 1.2 4.0 2 15
- 3.417269 0 4 ack 40 ------- 3 1.2 4.0 2 15
r 3.418301 0 4 ack 40 ------- 3 1.2 4.0 2 15
+ 3.418301 4 0 tcp 592 ------- 3 4.0 1.2 5 24
- 3.418301 4 0 tcp 592 ------- 3 4.0 1.2 5 24
+ 3.418301 4 0 tcp 592 ------- 3 4.0 1.2 6 25
- 3.418774 4 0 tcp 592 ------- 3 4.0 1.2 6 25
- 3.419774 0 1 tcp 592 ------- 3 4.0 1.2 4 23
r 3.419774 4 0 tcp 592 ------- 3 4.0 1.2 5 24
+ 3.419774 0 1 tcp 592 ------- 3 4.0 1.2 5 24
r 3.420248 4 0 tcp 592 ------- 3 4.0 1.2 6 25
+ 3.420248 0 1 tcp 592 ------- 3 4.0 1.2 6 25
- 3.42654 0 1 tcp 592 ------- 3 4.0 1.2 5 24
- 3.433306 0 1 tcp 592 ------- 3 4.0 1.2 6 25
r 3.994005 1 0 ack 40 ------- 2 1.1 3.0 1 16
+ 3.994005 0 3 ack 40 ------- 2 1.1 3.0 1 16
- 3.994005 0 3 ack 40 ------- 2 1.1 3.0 1 16
r 3.995037 0 3 ack 40 ------- 2 1.1 3.0 1 16
+ 3.995037 3 0 tcp 592 ------- 2 3.0 1.1 3 26
- 3.995037 3 0 tcp 592 ------- 2 3.0 1.1 3 26
+ 3.995037 3 0 tcp 592 ------- 2 3.0 1.1 4 27
- 3.99551 3 0 tcp 592 ------- 2 3.0 1.1 4 27
r 3.99651 3 0 tcp 592 ------- 2 3.0 1.1 3 26
+ 3.99651 0 1 tcp 592 ------- 2 3.0 1.1 3 26
- 3.99651 0 1 tcp 592 ------- 2 3.0 1.1 3 26
r 3.996984 3 0 tcp 592 ------- 2 3.0 1.1 4 27
+ 3.996984 0 1 tcp 592 ------- 2 3.0 1.1 4 27
r 4.00077 1 0 ack 40 ------- 2 1.1 3.0 2 17
+ 4.00077 0 3 ack 40 ------- 2 1.1 3.0 2 17
- 4.00077 0 3 ack 40 ------- 2 1.1 3.0 2 17
r 4.001802 0 3 ack 40 ------- 2 1.1 3.0 2 17
+ 4.001802 3 0 tcp 592 ------- 2 3.0 1.1 5 28
- 4.001802 3 0 tcp 592 ------- 2 3.0 1.1 5 28
+ 4.001802 3 0 tcp 592 ------- 2 3.0 1.1 6 29
- 4.002276 3 0 tcp 592 ------- 2 3.0 1.1 6 29
r 4.003276 3 0 tcp 592 ------- 2 3.0 1.1 5 28
+ 4.003276 0 1 tcp 592 ------- 2 3.0 1.1 5 28
- 4.003276 0 1 tcp 592 ------- 2 3.0 1.1 4 27
r 4.00375 3 0 tcp 592 ------- 2 3.0 1.1 6 29
+ 4.00375 0 1 tcp 592 ------- 2 3.0 1.1 6 29
- 4.010042 0 1 tcp 592 ------- 2 3.0 1.1 5 28
- 4.016807 0 1 tcp 592 ------- 2 3.0 1.1 6 29
r 4.025663 0 1 tcp 592 ------- 1 2.0 1.0 3 18
+ 4.025663 1 0 ack 40 ------- 1 1.0 2.0 3 30
- 4.025663 1 0 ack 40 ------- 1 1.0 2.0 3 30
r 4.032429 0 1 tcp 592 ------- 1 2.0 1.0 4 19
+ 4.032429 1 0 ack 40 ------- 1 1.0 2.0 4 31
- 4.032429 1 0 ack 40 ------- 1 1.0 2.0 4 31
r 4.039195 0 1 tcp 592 ------- 1 2.0 1.0 5 20
+ 4.039195 1 0 ack 40 ------- 1 1.0 2.0 5 32
- 4.039195 1 0 ack 40 ------- 1 1.0 2.0 5 32
r 4.04596 0 1 tcp 592 ------- 1 2.0 1.0 6 21
+ 4.04596 1 0 ack 40 ------- 1 1.0 2.0 6 33
- 4.04596 1 0 ack 40 ------- 1 1.0 2.0 6 33
r 4.219774 0 1 tcp 592 ------- 3 4.0 1.2 3 22
+ 4.219774 1 0 ack 40 ------- 3 1.2 4.0 3 34
- 4.219774 1 0 ack 40 ------- 3 1.2 4.0 3 34
r 4.22654 0 1 tcp 592 ------- 3 4.0 1.2 4 23
+ 4.22654 1 0 ack 40 ------- 3 1.2 4.0 4 35
- 4.22654 1 0 ack 40 ------- 3 1.2 4.0 4 35
r 4.233306 0 1 tcp 592 ------- 3 4.0 1.2 5 24
+ 4.233306 1 0 ack 40 ------- 3 1.2 4.0 5 36
- 4.233306 1 0 ack 40 ------- 3 1.2 4.0 5 36
r 4.240072 0 1 tcp 592 ------- 3 4.0 1.2 6 25
+ 4.240072 1 0 ack 40 ------- 3 1.2 4.0 6 37
- 4.240072 1 0 ack 40 ------- 3 1.2 4.0 6 37
r 4.803276 0 1 tcp 592 ------- 2 3.0 1.1 3 26
+ 4.803276 1 0 ack 40 ------- 2 1.1 3.0 3 38
- 4.803276 1 0 ack 40 ------- 2 1.1 3.0 3 38
r 4.810042 0 1 tcp 592 ------- 2 3.0 1.1 4 27
+ 4.810042 1 0 ack 40 ------- 2 1.1 3.0 4 39
- 4.810042 1 0 ack 40 ------- 2 1.1 3.0 4 39
r 4.816807 0 1 tcp 592 ------- 2 3.0 1.1 5 28
+ 4.816807 1 0 ack 40 ------- 2 1.1 3.0 5 40
- 4.816807 1 0 ack 40 ------- 2 1.1 3.0 5 40
r 4.823573 0 1 tcp 592 ------- 2 3.0 1.1 6 29
+ 4.823573 1 0 ack 40 ------- 2 1.1 3.0 6 41
- 4.823573 1 0 ack 40 ------- 2 1.1 3.0 6 41
r 4.82612 1 0 ack 40 ------- 1 1.0 2.0 3 30
+ 4.82612 0 2 ack 40 ------- 1 1.0 2.0 3 30
- 4.82612 0 2 ack 40 ------- 1 1.0 2.0 3 30
r 4.827152 0 2 ack 40 ------- 1 1.0 2.0 3 30
+ 4.827152 2 0 tcp 592 ------- 1 2.0 1.0 7 42
- 4.827152 2 0 tcp 592 ------- 1 2.0 1.0 7 42
+ 4.827152 2 0 tcp 592 ------- 1 2.0 1.0 8 43
- 4.827626 2 0 tcp 592 ------- 1 2.0 1.0 8 43
r 4.828626 2 0 tcp 592 ------- 1 2.0 1.0 7 42
+ 4.828626 0 1 tcp 592 ------- 1 2.0 1.0 7 42
- 4.828626 0 1 tcp 592 ------- 1 2.0 1.0 7 42
r 4.8291 2 0 tcp 592 ------- 1 2.0 1.0 8 43
+ 4.8291 0 1 tcp 592 ------- 1 2.0 1.0 8 43
r 4.832886 1 0 ack 40 ------- 1 1.0 2.0 4 31
+ 4.832886 0 2 ack 40 ------- 1 1.0 2.0 4 31
- 4.832886 0 2 ack 40 ------- 1 1.0 2.0 4 31
r 4.833918 0 2 ack 40 ------- 1 1.0 2.0 4 31
+ 4.833918 2 0 tcp 592 ------- 1 2.0 1.0 9 44
- 4.833918 2 0 tcp 592 ------- 1 2.0 1.0 9 44
+ 4.833918 2 0 tcp 592 ------- 1 2.0 1.0 10 45
- 4.834392 2 0 tcp 592 ------- 1 2.0 1.0 10 45
- 4.835392 0 1 tcp 592 ------- 1 2.0 1.0 8 43
r 4.835392 2 0 tcp 592 ------- 1 2.0 1.0 9 44
+ 4.835392 0 1 tcp 592 ------- 1 2.0 1.0 9 44
r 4.835865 2 0 tcp 592 ------- 1 2.0 1.0 10 45
+ 4.835865 0 1 tcp 592 ------- 1 2.0 1.0 10 45
r 4.839652 1 0 ack 40 ------- 1 1.0 2.0 5 32
+ 4.839652 0 2 ack 40 ------- 1 1.0 2.0 5 32
- 4.839652 0 2 ack 40 ------- 1 1.0 2.0 5 32
r 4.840684 0 2 ack 40 ------- 1 1.0 2.0 5 32
+ 4.840684 2 0 tcp 592 ------- 1 2.0 1.0 11 46
- 4.840684 2 0 tcp 592 ------- 1 2.0 1.0 11 46
+ 4.840684 2 0 tcp 592 ------- 1 2.0 1.0 12 47
- 4.841157 2 0 tcp 592 ------- 1 2.0 1.0 12 47
r 4.842157 2 0 tcp 592 ------- 1 2.0 1.0 11 46
+ 4.842157 0 1 tcp 592 ------- 1 2.0 1.0 11 46
- 4.842157 0 1 tcp 592 ------- 1 2.0 1.0 9 44
r 4.842631 2 0 tcp 592 ------- 1 2.0 1.0 12 47
+ 4.842631 0 1 tcp 592 ------- 1 2.0 1.0 12 47
r 4.846418 1 0 ack 40 ------- 1 1.0 2.0 6 33
+ 4.846418 0 2 ack 40 ------- 1 1.0 2.0 6 33
- 4.846418 0 2 ack 40 ------- 1 1.0 2.0 6 33
r 4.84745 0 2 ack 40 ------- 1 1.0 2.0 6 33
+ 4.84745 2 0 tcp 592 ------- 1 2.0 1.0 13 48
- 4.84745 2 0 tcp 592 ------- 1 2.0 1.0 13 48
+ 4.84745 2 0 tcp 592 ------- 1 2.0 1.0 14 49
- 4.847923 2 0 tcp 592 ------- 1 2.0 1.0 14 49
r 4.848923 2 0 tcp 592 ------- 1 2.0 1.0 13 48
+ 4.848923 0 1 tcp 592 ------- 1 2.0 1.0 13 48
- 4.848923 0 1 tcp 592 ------- 1 2.0 1.0 10 45
r 4.849397 2 0 tcp 592 ------- 1 2.0 1.0 14 49
+ 4.849397 0 1 tcp 592 ------- 1 2.0 1.0 14 49
- 4.855689 0 1 tcp 592 ------- 1 2.0 1.0 11 46
- 4.862455 0 1 tcp 592 ------- 1 2.0 1.0 12 47
- 4.86922 0 1 tcp 592 ------- 1 2.0 1.0 13 48
- 4.875986 0 1 tcp 592 ------- 1 2.0 1.0 14 49
r 5.020231 1 0 ack 40 ------- 3 1.2 4.0 3 34
+ 5.020231 0 4 ack 40 ------- 3 1.2 4.0 3 34
- 5.020231 0 4 ack 40 ------- 3 1.2 4.0 3 34
r 5.021264 0 4 ack 40 ------- 3 1.2 4.0 3 34
+ 5.021264 4 0 tcp 592 ------- 3 4.0 1.2 7 50
- 5.021264 4 0 tcp 592 ------- 3 4.0 1.2 7 50
+ 5.021264 4 0 tcp 592 ------- 3 4.0 1.2 8 51
- 5.021737 4 0 tcp 592 ------- 3 4.0 1.2 8 51
r 5.022737 4 0 tcp 592 ------- 3 4.0 1.2 7 50
+ 5.022737 0 1 tcp 592 ------- 3 4.0 1.2 7 50
- 5.022737 0 1 tcp 592 ------- 3 4.0 1.2 7 50
r 5.023211 4 0 tcp 592 ------- 3 4.0 1.2 8 51
+ 5.023211 0 1 tcp 592 ------- 3 4.0 1.2 8 51
r 5.026997 1 0 ack 40 ------- 3 1.2 4.0 4 35
+ 5.026997 0 4 ack 40 ------- 3 1.2 4.0 4 35
- 5.026997 0 4 ack 40 ------- 3 1.2 4.0 4 35
r 5.028029 0 4 ack 40 ------- 3 1.2 4.0 4 35
+ 5.028029 4 0 tcp 592 ------- 3 4.0 1.2 9 52
- 5.028029 4 0 tcp 592 ------- 3 4.0 1.2 9 52
+ 5.028029 4 0 tcp 592 ------- 3 4.0 1.2 10 53
- 5.028503 4 0 tcp 592 ------- 3 4.0 1.2 10 53
- 5.029503 0 1 tcp 592 ------- 3 4.0 1.2 8 51
r 5.029503 4 0 tcp 592 ------- 3 4.0 1.2 9 52
+ 5.029503 0 1 tcp 592 ------- 3 4.0 1.2 9 52
r 5.029976 4 0 tcp 592 ------- 3 4.0 1.2 10 53
+ 5.029976 0 1 tcp 592 ------- 3 4.0 1.2 10 53
r 5.033763 1 0 ack 40 ------- 3 1.2 4.0 5 36
+ 5.033763 0 4 ack 40 ------- 3 1.2 4.0 5 36
- 5.033763 0 4 ack 40 ------- 3 1.2 4.0 5 36
r 5.034795 0 4 ack 40 ------- 3 1.2 4.0 5 36
+ 5.034795 4 0 tcp 592 ------- 3 4.0 1.2 11 54
- 5.034795 4 0 tcp 592 ------- 3 4.0 1.2 11 54
+ 5.034795 4 0 tcp 592 ------- 3 4.0 1.2 12 55
- 5.035269 4 0 tcp 592 ------- 3 4.0 1.2 12 55
r 5.036269 4 0 tcp 592 ------- 3 4.0 1.2 11 54
+ 5.036269 0 1 tcp 592 ------- 3 4.0 1.2 11 54
- 5.036269 0 1 tcp 592 ------- 3 4.0 1.2 9 52
r 5.036742 4 0 tcp 592 ------- 3 4.0 1.2 12 55
+ 5.036742 0 1 tcp 592 ------- 3 4.0 1.2 12 55
r 5.040529 1 0 ack 40 ------- 3 1.2 4.0 6 37
+ 5.040529 0 4 ack 40 ------- 3 1.2 4.0 6 37
- 5.040529 0 4 ack 40 ------- 3 1.2 4.0 6 37
r 5.041561 0 4 ack 40 ------- 3 1.2 4.0 6 37
+ 5.041561 4 0 tcp 592 ------- 3 4.0 1.2 13 56
- 5.041561 4 0 tcp 592 ------- 3 4.0 1.2 13 56
+ 5.041561 4 0 tcp 592 ------- 3 4.0 1.2 14 57
- 5.042034 4 0 tcp 592 ------- 3 4.0 1.2 14 57
r 5.043034 4 0 tcp 592 ------- 3 4.0 1.2 13 56
+ 5.043034 0 1 tcp 592 ------- 3 4.0 1.2 13 56
- 5.043034 0 1 tcp 592 ------- 3 4.0 1.2 10 53
r 5.043508 4 0 tcp 592 ------- 3 4.0 1.2 14 57
+ 5.043508 0 1 tcp 592 ------- 3 4.0 1.2 14 57
- 5.0498 0 1 tcp 592 ------- 3 4.0 1.2 11 54
- 5.056566 0 1 tcp 592 ------- 3 4.0 1.2 12 55
- 5.063331 0 1 tcp 592 ------- 3 4.0 1.2 13 56
- 5.070097 0 1 tcp 592 ------- 3 4.0 1.2 14 57
r 5.603733 1 0 ack 40 ------- 2 1.1 3.0 3 38
+ 5.603733 0 3 ack 40 ------- 2 1.1 3.0 3 38
- 5.603733 0 3 ack 40 ------- 2 1.1 3.0 3 38
r 5.604765 0 3 ack 40 ------- 2 1.1 3.0 3 38
+ 5.604765 3 0 tcp 592 ------- 2 3.0 1.1 7 58
- 5.604765 3 0 tcp 592 ------- 2 3.0 1.1 7 58
+ 5.604765 3 0 tcp 592 ------- 2 3.0 1.1 8 59
- 5.605239 3 0 tcp 592 ------- 2 3.0 1.1 8 59
r 5.606239 3 0 tcp 592 ------- 2 3.0 1.1 7 58
+ 5.606239 0 1 tcp 592 ------- 2 3.0 1.1 7 58
- 5.606239 0 1 tcp 592 ------- 2 3.0 1.1 7 58
r 5.606712 3 0 tcp 592 ------- 2 3.0 1.1 8 59
+ 5.606712 0 1 tcp 592 ------- 2 3.0 1.1 8 59
r 5.610499 1 0 ack 40 ------- 2 1.1 3.0 4 39
+ 5.610499 0 3 ack 40 ------- 2 1.1 3.0 4 39
- 5.610499 0 3 ack 40 ------- 2 1.1 3.0 4 39
r 5.611531 0 3 ack 40 ------- 2 1.1 3.0 4 39
+ 5.611531 3 0 tcp 592 ------- 2 3.0 1.1 9 60
- 5.611531 3 0 tcp 592 ------- 2 3.0 1.1 9 60
+ 5.611531 3 0 tcp 592 ------- 2 3.0 1.1 10 61
- 5.612005 3 0 tcp 592 ------- 2 3.0 1.1 10 61
- 5.613005 0 1 tcp 592 ------- 2 3.0 1.1 8 59
r 5.613005 3 0 tcp 592 ------- 2 3.0 1.1 9 60
+ 5.613005 0 1 tcp 592 ------- 2 3.0 1.1 9 60
r 5.613478 3 0 tcp 592 ------- 2 3.0 1.1 10 61
+ 5.613478 0 1 tcp 592 ------- 2 3.0 1.1 10 61
r 5.617265 1 0 ack 40 ------- 2 1.1 3.0 5 40
+ 5.617265 0 3 ack 40 ------- 2 1.1 3.0 5 40
- 5.617265 0 3 ack 40 ------- 2 1.1 3.0 5 40
r 5.618297 0 3 ack 40 ------- 2 1.1 3.0 5 40
+ 5.618297 3 0 tcp 592 ------- 2 3.0 1.1 11 62
- 5.618297 3 0 tcp 592 ------- 2 3.0 1.1 11 62
+ 5.618297 3 0 tcp 592 ------- 2 3.0 1.1 12 63
- 5.61877 3 0 tcp 592 ------- 2 3.0 1.1 12 63
- 5.61977 0 1 tcp 592 ------- 2 3.0 1.1 9 60
r 5.61977 3 0 tcp 592 ------- 2 3.0 1.1 11 62
+ 5.61977 0 1 tcp 592 ------- 2 3.0 1.1 11 62
r 5.620244 3 0 tcp 592 ------- 2 3.0 1.1 12 63
+ 5.620244 0 1 tcp 592 ------- 2 3.0 1.1 12 63
r 5.62403 1 0 ack 40 ------- 2 1.1 3.0 6 41
+ 5.62403 0 3 ack 40 ------- 2 1.1 3.0 6 41
- 5.62403 0 3 ack 40 ------- 2 1.1 3.0 6 41
r 5.625062 0 3 ack 40 ------- 2 1.1 3.0 6 41
+ 5.625062 3 0 tcp 592 ------- 2 3.0 1.1 13 64
- 5.625062 3 0 tcp 592 ------- 2 3.0 1.1 13 64
+ 5.625062 3 0 tcp 592 ------- 2 3.0 1.1 14 65
- 5.625536 3 0 tcp 592 ------- 2 3.0 1.1 14 65
- 5.626536 0 1 tcp 592 ------- 2 3.0 1.1 10 61
r 5.626536 3 0 tcp 592 ------- 2 3.0 1.1 13 64
+ 5.626536 0 1 tcp 592 ------- 2 3.0 1.1 13 64
r 5.62701 3 0 tcp 592 ------- 2 3.0 1.1 14 65
+ 5.62701 0 1 tcp 592 ------- 2 3.0 1.1 14 65
- 5.633302 0 1 tcp 592 ------- 2 3.0 1.1 11 62
r 5.635392 0 1 tcp 592 ------- 1 2.0 1.0 7 42
+ 5.635392 1 0 ack 40 ------- 1 1.0 2.0 7 66
- 5.635392 1 0 ack 40 ------- 1 1.0 2.0 7 66
- 5.640067 0 1 tcp 592 ------- 2 3.0 1.1 12 63
r 5.642157 0 1 tcp 592 ------- 1 2.0 1.0 8 43
+ 5.642157 1 0 ack 40 ------- 1 1.0 2.0 8 67
- 5.642157 1 0 ack 40 ------- 1 1.0 2.0 8 67
- 5.646833 0 1 tcp 592 ------- 2 3.0 1.1 13 64
r 5.648923 0 1 tcp 592 ------- 1 2.0 1.0 9 44
+ 5.648923 1 0 ack 40 ------- 1 1.0 2.0 9 68
- 5.648923 1 0 ack 40 ------- 1 1.0 2.0 9 68
- 5.653599 0 1 tcp 592 ------- 2 3.0 1.1 14 65
r 5.655689 0 1 tcp 592 ------- 1 2.0 1.0 10 45
+ 5.655689 1 0 ack 40 ------- 1 1.0 2.0 10 69
- 5.655689 1 0 ack 40 ------- 1 1.0 2.0 10 69
r 5.662455 0 1 tcp 592 ------- 1 2.0 1.0 11 46
+ 5.662455 1 0 ack 40 ------- 1 1.0 2.0 11 70
- 5.662455 1 0 ack 40 ------- 1 1.0 2.0 11 70
r 5.66922 0 1 tcp 592 ------- 1 2.0 1.0 12 47
+ 5.66922 1 0 ack 40 ------- 1 1.0 2.0 12 71
- 5.66922 1 0 ack 40 ------- 1 1.0 2.0 12 71
r 5.675986 0 1 tcp 592 ------- 1 2.0 1.0 13 48
+ 5.675986 1 0 ack 40 ------- 1 1.0 2.0 13 72
- 5.675986 1 0 ack 40 ------- 1 1.0 2.0 13 72
r 5.682752 0 1 tcp 592 ------- 1 2.0 1.0 14 49
+ 5.682752 1 0 ack 40 ------- 1 1.0 2.0 14 73
- 5.682752 1 0 ack 40 ------- 1 1.0 2.0 14 73
r 5.829503 0 1 tcp 592 ------- 3 4.0 1.2 7 50
+ 5.829503 1 0 ack 40 ------- 3 1.2 4.0 7 74
- 5.829503 1 0 ack 40 ------- 3 1.2 4.0 7 74
r 5.836269 0 1 tcp 592 ------- 3 4.0 1.2 8 51
+ 5.836269 1 0 ack 40 ------- 3 1.2 4.0 8 75
- 5.836269 1 0 ack 40 ------- 3 1.2 4.0 8 75
r 5.843034 0 1 tcp 592 ------- 3 4.0 1.2 9 52
+ 5.843034 1 0 ack 40 ------- 3 1.2 4.0 9 76
- 5.843034 1 0 ack 40 ------- 3 1.2 4.0 9 76
r 5.8498 0 1 tcp 592 ------- 3 4.0 1.2 10 53
+ 5.8498 1 0 ack 40 ------- 3 1.2 4.0 10 77
- 5.8498 1 0 ack 40 ------- 3 1.2 4.0 10 77
r 5.856566 0 1 tcp 592 ------- 3 4.0 1.2 11 54
+ 5.856566 1 0 ack 40 ------- 3 1.2 4.0 11 78
- 5.856566 1 0 ack 40 ------- 3 1.2 4.0 11 78
r 5.863331 0 1 tcp 592 ------- 3 4.0 1.2 12 55
+ 5.863331 1 0 ack 40 ------- 3 1.2 4.0 12 79
- 5.863331 1 0 ack 40 ------- 3 1.2 4.0 12 79
r 5.870097 0 1 tcp 592 ------- 3 4.0 1.2 13 56
+ 5.870097 1 0 ack 40 ------- 3 1.2 4.0 13 80
- 5.870097 1 0 ack 40 ------- 3 1.2 4.0 13 80
r 5.876863 0 1 tcp 592 ------- 3 4.0 1.2 14 57
+ 5.876863 1 0 ack 40 ------- 3 1.2 4.0 14 81
- 5.876863 1 0 ack 40 ------- 3 1.2 4.0 14 81
r 6.413005 0 1 tcp 592 ------- 2 3.0 1.1 7 58
+ 6.413005 1 0 ack 40 ------- 2 1.1 3.0 7 82
- 6.413005 1 0 ack 40 ------- 2 1.1 3.0 7 82
r 6.41977 0 1 tcp 592 ------- 2 3.0 1.1 8 59
+ 6.41977 1 0 ack 40 ------- 2 1.1 3.0 8 83
- 6.41977 1 0 ack 40 ------- 2 1.1 3.0 8 83
r 6.426536 0 1 tcp 592 ------- 2 3.0 1.1 9 60
+ 6.426536 1 0 ack 40 ------- 2 1.1 3.0 9 84
- 6.426536 1 0 ack 40 ------- 2 1.1 3.0 9 84
r 6.433302 0 1 tcp 592 ------- 2 3.0 1.1 10 61
+ 6.433302 1 0 ack 40 ------- 2 1.1 3.0 10 85
- 6.433302 1 0 ack 40 ------- 2 1.1 3.0 10 85
r 6.435849 1 0 ack 40 ------- 1 1.0 2.0 7 66
+ 6.435849 0 2 ack 40 ------- 1 1.0 2.0 7 66
- 6.435849 0 2 ack 40 ------- 1 1.0 2.0 7 66
r 6.436881 0 2 ack 40 ------- 1 1.0 2.0 7 66
+ 6.436881 2 0 tcp 592 ------- 1 2.0 1.0 15 86
- 6.436881 2 0 tcp 592 ------- 1 2.0 1.0 15 86
+ 6.436881 2 0 tcp 592 ------- 1 2.0 1.0 16 87
- 6.437354 2 0 tcp 592 ------- 1 2.0 1.0 16 87
r 6.438354 2 0 tcp 592 ------- 1 2.0 1.0 15 86
+ 6.438354 0 1 tcp 592 ------- 1 2.0 1.0 15 86
- 6.438354 0 1 tcp 592 ------- 1 2.0 1.0 15 86
r 6.438828 2 0 tcp 592 ------- 1 2.0 1.0 16 87
+ 6.438828 0 1 tcp 592 ------- 1 2.0 1.0 16 87
r 6.440067 0 1 tcp 592 ------- 2 3.0 1.1 11 62
+ 6.440067 1 0 ack 40 ------- 2 1.1 3.0 11 88
- 6.440067 1 0 ack 40 ------- 2 1.1 3.0 11 88
r 6.442615 1 0 ack 40 ------- 1 1.0 2.0 8 67
+ 6.442615 0 2 ack 40 ------- 1 1.0 2.0 8 67
- 6.442615 0 2 ack 40 ------- 1 1.0 2.0 8 67
r 6.443647 0 2 ack 40 ------- 1 1.0 2.0 8 67
+ 6.443647 2 0 tcp 592 ------- 1 2.0 1.0 17 89
- 6.443647 2 0 tcp 592 ------- 1 2.0 1.0 17 89
+ 6.443647 2 0 tcp 592 ------- 1 2.0 1.0 18 90
- 6.44412 2 0 tcp 592 ------- 1 2.0 1.0 18 90
- 6.44512 0 1 tcp 592 ------- 1 2.0 1.0 16 87
r 6.44512 2 0 tcp 592 ------- 1 2.0 1.0 17 89
+ 6.44512 0 1 tcp 592 ------- 1 2.0 1.0 17 89
r 6.445594 2 0 tcp 592 ------- 1 2.0 1.0 18 90
+ 6.445594 0 1 tcp 592 ------- 1 2.0 1.0 18 90
r 6.446833 0 1 tcp 592 ------- 2 3.0 1.1 12 63
+ 6.446833 1 0 ack 40 ------- 2 1.1 3.0 12 91
- 6.446833 1 0 ack 40 ------- 2 1.1 3.0 12 91
r 6.44938 1 0 ack 40 ------- 1 1.0 2.0 9 68
+ 6.44938 0 2 ack 40 ------- 1 1.0 2.0 9 68
- 6.44938 0 2 ack 40 ------- 1 1.0 2.0 9 68
r 6.450412 0 2 ack 40 ------- 1 1.0 2.0 9 68
+ 6.450412 2 0 tcp 592 ------- 1 2.0 1.0 19 92
- 6.450412 2 0 tcp 592 ------- 1 2.0 1.0 19 92
+ 6.450412 2 0 tcp 592 ------- 1 2.0 1.0 20 93
- 6.450886 2 0 tcp 592 ------- 1 2.0 1.0 20 93
- 6.451886 0 1 tcp 592 ------- 1 2.0 1.0 17 89
r 6.451886 2 0 tcp 592 ------- 1 2.0 1.0 19 92
+ 6.451886 0 1 tcp 592 ------- 1 2.0 1.0 19 92
r 6.452359 2 0 tcp 592 ------- 1 2.0 1.0 20 93
+ 6.452359 0 1 tcp 592 ------- 1 2.0 1.0 20 93
r 6.453599 0 1 tcp 592 ------- 2 3.0 1.1 13 64
+ 6.453599 1 0 ack 40 ------- 2 1.1 3.0 13 94
- 6.453599 1 0 ack 40 ------- 2 1.1 3.0 13 94
r 6.456146 1 0 ack 40 ------- 1 1.0 2.0 10 69
+ 6.456146 0 2 ack 40 ------- 1 1.0 2.0 10 69
- 6.456146 0 2 ack 40 ------- 1 1.0 2.0 10 69
r 6.457178 0 2 ack 40 ------- 1 1.0 2.0 10 69
+ 6.457178 2 0 tcp 592 ------- 1 2.0 1.0 21 95
- 6.457178 2 0 tcp 592 ------- 1 2.0 1.0 21 95
+ 6.457178 2 0 tcp 592 ------- 1 2.0 1.0 22 96
- 6.457652 2 0 tcp 592 ------- 1 2.0 1.0 22 96
- 6.458652 0 1 tcp 592 ------- 1 2.0 1.0 18 90
r 6.458652 2 0 tcp 592 ------- 1 2.0 1.0 21 95
+ 6.458652 0 1 tcp 592 ------- 1 2.0 1.0 21 95
r 6.459125 2 0 tcp 592 ------- 1 2.0 1.0 22 96
+ 6.459125 0 1 tcp 592 ------- 1 2.0 1.0 22 96
r 6.460365 0 1 tcp 592 ------- 2 3.0 1.1 14 65
+ 6.460365 1 0 ack 40 ------- 2 1.1 3.0 14 97
- 6.460365 1 0 ack 40 ------- 2 1.1 3.0 14 97
r 6.462912 1 0 ack 40 ------- 1 1.0 2.0 11 70
+ 6.462912 0 2 ack 40 ------- 1 1.0 2.0 11 70
- 6.462912 0 2 ack 40 ------- 1 1.0 2.0 11 70
r 6.463944 0 2 ack 40 ------- 1 1.0 2.0 11 70
+ 6.463944 2 0 tcp 592 ------- 1 2.0 1.0 23 98
- 6.463944 2 0 tcp 592 ------- 1 2.0 1.0 23 98
+ 6.463944 2 0 tcp 592 ------- 1 2.0 1.0 24 99
- 6.464417 2 0 tcp 592 ------- 1 2.0 1.0 24 99
- 6.465417 0 1 tcp 592 ------- 1 2.0 1.0 19 92
r 6.465417 2 0 tcp 592 ------- 1 2.0 1.0 23 98
+ 6.465417 0 1 tcp 592 ------- 1 2.0 1.0 23 98
r 6.465891 2 0 tcp 592 ------- 1 2.0 1.0 24 99
+ 6.465891 0 1 tcp 592 ------- 1 2.0 1.0 24 99
r 6.469677 1 0 ack 40 ------- 1 1.0 2.0 12 71
+ 6.469677 0 2 ack 40 ------- 1 1.0 2.0 12 71
- 6.469677 0 2 ack 40 ------- 1 1.0 2.0 12 71
r 6.470709 0 2 ack 40 ------- 1 1.0 2.0 12 71
+ 6.470709 2 0 tcp 592 ------- 1 2.0 1.0 25 100
- 6.470709 2 0 tcp 592 ------- 1 2.0 1.0 25 100
+ 6.470709 2 0 tcp 592 ------- 1 2.0 1.0 26 101
- 6.471183 2 0 tcp 592 ------- 1 2.0 1.0 26 101
- 6.472183 0 1 tcp 592 ------- 1 2.0 1.0 20 93
r 6.472183 2 0 tcp 592 ------- 1 2.0 1.0 25 100
+ 6.472183 0 1 tcp 592 ------- 1 2.0 1.0 25 100
r 6.472657 2 0 tcp 592 ------- 1 2.0 1.0 26 101
+ 6.472657 0 1 tcp 592 ------- 1 2.0 1.0 26 101
r 6.476443 1 0 ack 40 ------- 1 1.0 2.0 13 72
+ 6.476443 0 2 ack 40 ------- 1 1.0 2.0 13 72
- 6.476443 0 2 ack 40 ------- 1 1.0 2.0 13 72
r 6.477475 0 2 ack 40 ------- 1 1.0 2.0 13 72
+ 6.477475 2 0 tcp 592 ------- 1 2.0 1.0 27 102
- 6.477475 2 0 tcp 592 ------- 1 2.0 1.0 27 102
+ 6.477475 2 0 tcp 592 ------- 1 2.0 1.0 28 103
- 6.477949 2 0 tcp 592 ------- 1 2.0 1.0 28 103
- 6.478949 0 1 tcp 592 ------- 1 2.0 1.0 21 95
r 6.478949 2 0 tcp 592 ------- 1 2.0 1.0 27 102
+ 6.478949 0 1 tcp 592 ------- 1 2.0 1.0 27 102
r 6.479422 2 0 tcp 592 ------- 1 2.0 1.0 28 103
+ 6.479422 0 1 tcp 592 ------- 1 2.0 1.0 28 103
r 6.483209 1 0 ack 40 ------- 1 1.0 2.0 14 73
+ 6.483209 0 2 ack 40 ------- 1 1.0 2.0 14 73
- 6.483209 0 2 ack 40 ------- 1 1.0 2.0 14 73
r 6.484241 0 2 ack 40 ------- 1 1.0 2.0 14 73
+ 6.484241 2 0 tcp 592 ------- 1 2.0 1.0 29 104
- 6.484241 2 0 tcp 592 ------- 1 2.0 1.0 29 104
+ 6.484241 2 0 tcp 592 ------- 1 2.0 1.0 30 105
- 6.484714 2 0 tcp 592 ------- 1 2.0 1.0 30 105
- 6.485714 0 1 tcp 592 ------- 1 2.0 1.0 22 96
r 6.485714 2 0 tcp 592 ------- 1 2.0 1.0 29 104
+ 6.485714 0 1 tcp 592 ------- 1 2.0 1.0 29 104
r 6.486188 2 0 tcp 592 ------- 1 2.0 1.0 30 105
+ 6.486188 0 1 tcp 592 ------- 1 2.0 1.0 30 105
- 6.49248 0 1 tcp 592 ------- 1 2.0 1.0 23 98
- 6.499246 0 1 tcp 592 ------- 1 2.0 1.0 24 99
- 6.506012 0 1 tcp 592 ------- 1 2.0 1.0 25 100
- 6.512777 0 1 tcp 592 ------- 1 2.0 1.0 26 101
- 6.519543 0 1 tcp 592 ------- 1 2.0 1.0 27 102
- 6.526309 0 1 tcp 592 ------- 1 2.0 1.0 28 103
- 6.533074 0 1 tcp 592 ------- 1 2.0 1.0 29 104
- 6.53984 0 1 tcp 592 ------- 1 2.0 1.0 30 105
r 6.62996 1 0 ack 40 ------- 3 1.2 4.0 7 74
+ 6.62996 0 4 ack 40 ------- 3 1.2 4.0 7 74
- 6.62996 0 4 ack 40 ------- 3 1.2 4.0 7 74
r 6.630992 0 4 ack 40 ------- 3 1.2 4.0 7 74
+ 6.630992 4 0 tcp 592 ------- 3 4.0 1.2 15 106
- 6.630992 4 0 tcp 592 ------- 3 4.0 1.2 15 106
+ 6.630992 4 0 tcp 592 ------- 3 4.0 1.2 16 107
- 6.631466 4 0 tcp 592 ------- 3 4.0 1.2 16 107
r 6.632466 4 0 tcp 592 ------- 3 4.0 1.2 15 106
+ 6.632466 0 1 tcp 592 ------- 3 4.0 1.2 15 106
- 6.632466 0 1 tcp 592 ------- 3 4.0 1.2 15 106
r 6.632939 4 0 tcp 592 ------- 3 4.0 1.2 16 107
+ 6.632939 0 1 tcp 592 ------- 3 4.0 1.2 16 107
r 6.636726 1 0 ack 40 ------- 3 1.2 4.0 8 75
+ 6.636726 0 4 ack 40 ------- 3 1.2 4.0 8 75
- 6.636726 0 4 ack 40 ------- 3 1.2 4.0 8 75
r 6.637758 0 4 ack 40 ------- 3 1.2 4.0 8 75
+ 6.637758 4 0 tcp 592 ------- 3 4.0 1.2 17 108
- 6.637758 4 0 tcp 592 ------- 3 4.0 1.2 17 108
+ 6.637758 4 0 tcp 592 ------- 3 4.0 1.2 18 109
- 6.638231 4 0 tcp 592 ------- 3 4.0 1.2 18 109
- 6.639231 0 1 tcp 592 ------- 3 4.0 1.2 16 107
r 6.639231 4 0 tcp 592 ------- 3 4.0 1.2 17 108
+ 6.639231 0 1 tcp 592 ------- 3 4.0 1.2 17 108
r 6.639705 4 0 tcp 592 ------- 3 4.0 1.2 18 109
+ 6.639705 0 1 tcp 592 ------- 3 4.0 1.2 18 109
r 6.643491 1 0 ack 40 ------- 3 1.2 4.0 9 76
+ 6.643491 0 4 ack 40 ------- 3 1.2 4.0 9 76
- 6.643491 0 4 ack 40 ------- 3 1.2 4.0 9 76
r 6.644523 0 4 ack 40 ------- 3 1.2 4.0 9 76
+ 6.644523 4 0 tcp 592 ------- 3 4.0 1.2 19 110
- 6.644523 4 0 tcp 592 ------- 3 4.0 1.2 19 110
+ 6.644523 4 0 tcp 592 ------- 3 4.0 1.2 20 111
- 6.644997 4 0 tcp 592 ------- 3 4.0 1.2 20 111
- 6.645997 0 1 tcp 592 ------- 3 4.0 1.2 17 108
r 6.645997 4 0 tcp 592 ------- 3 4.0 1.2 19 110
+ 6.645997 0 1 tcp 592 ------- 3 4.0 1.2 19 110
r 6.646471 4 0 tcp 592 ------- 3 4.0 1.2 20 111
+ 6.646471 0 1 tcp 592 ------- 3 4.0 1.2 20 111
r 6.650257 1 0 ack 40 ------- 3 1.2 4.0 10 77
+ 6.650257 0 4 ack 40 ------- 3 1.2 4.0 10 77
- 6.650257 0 4 ack 40 ------- 3 1.2 4.0 10 77
r 6.651289 0 4 ack 40 ------- 3 1.2 4.0 10 77
+ 6.651289 4 0 tcp 592 ------- 3 4.0 1.2 21 112
- 6.651289 4 0 tcp 592 ------- 3 4.0 1.2 21 112
+ 6.651289 4 0 tcp 592 ------- 3 4.0 1.2 22 113
- 6.651763 4 0 tcp 592 ------- 3 4.0 1.2 22 113
- 6.652763 0 1 tcp 592 ------- 3 4.0 1.2 18 109
r 6.652763 4 0 tcp 592 ------- 3 4.0 1.2 21 112
+ 6.652763 0 1 tcp 592 ------- 3 4.0 1.2 21 112
r 6.653236 4 0 tcp 592 ------- 3 4.0 1.2 22 113
+ 6.653236 0 1 tcp 592 ------- 3 4.0 1.2 22 113
r 6.657023 1 0 ack 40 ------- 3 1.2 4.0 11 78
+ 6.657023 0 4 ack 40 ------- 3 1.2 4.0 11 78
- 6.657023 0 4 ack 40 ------- 3 1.2 4.0 11 78
r 6.658055 0 4 ack 40 ------- 3 1.2 4.0 11 78
+ 6.658055 4 0 tcp 592 ------- 3 4.0 1.2 23 114
- 6.658055 4 0 tcp 592 ------- 3 4.0 1.2 23 114
+ 6.658055 4 0 tcp 592 ------- 3 4.0 1.2 24 115
- 6.658528 4 0 tcp 592 ------- 3 4.0 1.2 24 115
- 6.659528 0 1 tcp 592 ------- 3 4.0 1.2 19 110
r 6.659528 4 0 tcp 592 ------- 3 4.0 1.2 23 114
+ 6.659528 0 1 tcp 592 ------- 3 4.0 1.2 23 114
r 6.660002 4 0 tcp 592 ------- 3 4.0 1.2 24 115
+ 6.660002 0 1 tcp 592 ------- 3 4.0 1.2 24 115
r 6.663789 1 0 ack 40 ------- 3 1.2 4.0 12 79
+ 6.663789 0 4 ack 40 ------- 3 1.2 4.0 12 79
- 6.663789 0 4 ack 40 ------- 3 1.2 4.0 12 79
r 6.664821 0 4 ack 40 ------- 3 1.2 4.0 12 79
+ 6.664821 4 0 tcp 592 ------- 3 4.0 1.2 25 116
- 6.664821 4 0 tcp 592 ------- 3 4.0 1.2 25 116
+ 6.664821 4 0 tcp 592 ------- 3 4.0 1.2 26 117
- 6.665294 4 0 tcp 592 ------- 3 4.0 1.2 26 117
- 6.666294 0 1 tcp 592 ------- 3 4.0 1.2 20 111
r 6.666294 4 0 tcp 592 ------- 3 4.0 1.2 25 116
+ 6.666294 0 1 tcp 592 ------- 3 4.0 1.2 25 116
r 6.666768 4 0 tcp 592 ------- 3 4.0 1.2 26 117
+ 6.666768 0 1 tcp 592 ------- 3 4.0 1.2 26 117
r 6.670554 1 0 ack 40 ------- 3 1.2 4.0 13 80
+ 6.670554 0 4 ack 40 ------- 3 1.2 4.0 13 80
- 6.670554 0 4 ack 40 ------- 3 1.2 4.0 13 80
r 6.671586 0 4 ack 40 ------- 3 1.2 4.0 13 80
+ 6.671586 4 0 tcp 592 ------- 3 4.0 1.2 27 118
- 6.671586 4 0 tcp 592 ------- 3 4.0 1.2 27 118
+ 6.671586 4 0 tcp 592 ------- 3 4.0 1.2 28 119
- 6.67206 4 0 tcp 592 ------- 3 4.0 1.2 28 119
- 6.67306 0 1 tcp 592 ------- 3 4.0 1.2 21 112
r 6.67306 4 0 tcp 592 ------- 3 4.0 1.2 27 118
+ 6.67306 0 1 tcp 592 ------- 3 4.0 1.2 27 118
r 6.673533 4 0 tcp 592 ------- 3 4.0 1.2 28 119
+ 6.673533 0 1 tcp 592 ------- 3 4.0 1.2 28 119
r 6.67732 1 0 ack 40 ------- 3 1.2 4.0 14 81
+ 6.67732 0 4 ack 40 ------- 3 1.2 4.0 14 81
- 6.67732 0 4 ack 40 ------- 3 1.2 4.0 14 81
r 6.678352 0 4 ack 40 ------- 3 1.2 4.0 14 81
+ 6.678352 4 0 tcp 592 ------- 3 4.0 1.2 29 120